% Model:              batchmodel_BILLETTA_r_0.0542379_COIL_kr_2.4069_COIL_kw_5.8583_FUNZ_freq_6066_FUNZ_I_eff_127.5152.mph
% Version:            COMSOL 5.6.0.401
% Date:               Jan 28 2022, 03:44
% Table:              Tabella delle sonde 1 - 
% Tempo (s)                                       Temperatura (degC), Punto: (0, 0.5)               Temperatura (degC), Punto: (0.5*BILLETTA_r, 0.5)  Temperatura (degC), Punto: (BILLETTA_r-10*FUNZ_depth_billetta, 0.5)Temperatura (degC), Punto: (BILLETTA_r-5*FUNZ_depth_billetta, 0.5)Temperatura (degC), Punto: (BILLETTA_r-2*FUNZ_depth_billetta, 0.5)Temperatura (degC), Punto: (BILLETTA_r-FUNZ_depth_billetta, 0.5)Temperatura (degC), Punto: (BILLETTA_r-0.01[mm], 0.5)
0                                                 20                                                20.000000000000057                                20.000000003027196                                20.019820551139844                                20.521325124834163                                20.88851575651529                                 21.221266553765417
5                                                 20.112535281880525                                33.69141558363185                                 1040.919979244502                                 1195.374281753533                                 1233.0703368531895                                1237.1607615249986                                1237.2626507029213
10                                                26.411204120163575                                104.17816523612385                                1223.3327492542612                                1275.1214597035037                                1286.3662694307536                                1286.7859381555809                                1285.5830000623855
15                                                52.114976542469435                                189.29488059405674                                1276.5671694929547                                1306.1238593156386                                1311.4477028425317                                1310.9975017430497                                1309.4524182358955
20                                                95.42594180973049                                 270.02622585266454                                1309.1618266134024                                1330.5806382179826                                1333.7355962965826                                1332.9445538973796                                1331.2358316126515
25                                                146.94678870468135                                344.54271580142847                                1344.9067391113308                                1362.3869963241991                                1364.3967440234578                                1363.3867041034928                                1361.5320025028545
26.988414167238485                                168.53749859202725                                372.69245049702306                                1359.9869386178957                                1376.3553655361466                                1378.0020475176348                                1376.9144122940397                                1375.0007166345486
