% Model:              batchmodel_BILLETTA_r_0.0542379_COIL_kr_1.4848_COIL_kw_4.5299_FUNZ_freq_2540.9_FUNZ_I_eff_174.7421.mph
% Version:            COMSOL 5.6.0.401
% Date:               Jan 27 2022, 21:19
% Table:              Tabella delle sonde 1 - 
% Tempo (s)                                       Temperatura (degC), Punto: (0, 0.5)               Temperatura (degC), Punto: (0.5*BILLETTA_r, 0.5)  Temperatura (degC), Punto: (BILLETTA_r-10*FUNZ_depth_billetta, 0.5)Temperatura (degC), Punto: (BILLETTA_r-5*FUNZ_depth_billetta, 0.5)Temperatura (degC), Punto: (BILLETTA_r-2*FUNZ_depth_billetta, 0.5)Temperatura (degC), Punto: (BILLETTA_r-FUNZ_depth_billetta, 0.5)Temperatura (degC), Punto: (BILLETTA_r-0.01[mm], 0.5)
0                                                 20                                                20                                                20.00000000696656                                 20.036191796213416                                20.353056729373293                                20.54970328325112                                 20.74896978032791
5                                                 20.091125592162598                                33.737115673963274                                899.4269839818556                                 1182.1937190801855                                1253.4391650429798                                1261.5389075220742                                1262.1794571936584
10                                                25.828562092883146                                109.16487981480401                                1278.657382105674                                 1368.9810043639905                                1387.2256194882234                                1387.6368719041357                                1385.273870539293
10.348414980748004                                26.736524500813914                                115.63021243478221                                1289.1243239470518                                1373.6937250995038                                1390.3643724544131                                1390.5510748187976                                1388.1028639481824
