% Model:              batchmodel_BILLETTA_r_0.0542379_COIL_kr_1.6756_COIL_kw_4.5299_FUNZ_freq_8940.8_FUNZ_I_eff_85.0125.mph
% Version:            COMSOL 5.6.0.401
% Date:               Jan 27 2022, 23:31
% Table:              Tabella delle sonde 1 - 
% Tempo (s)                                       Temperatura (degC), Punto: (0, 0.5)               Temperatura (degC), Punto: (0.5*BILLETTA_r, 0.5)  Temperatura (degC), Punto: (BILLETTA_r-10*FUNZ_depth_billetta, 0.5)Temperatura (degC), Punto: (BILLETTA_r-5*FUNZ_depth_billetta, 0.5)Temperatura (degC), Punto: (BILLETTA_r-2*FUNZ_depth_billetta, 0.5)Temperatura (degC), Punto: (BILLETTA_r-FUNZ_depth_billetta, 0.5)Temperatura (degC), Punto: (BILLETTA_r-0.01[mm], 0.5)
0                                                 20                                                20                                                20.00000000061692                                 20.002315457806958                                20.388554702875126                                20.767507919448576                                21.105897602817606
5                                                 20.01379961303644                                 26.73258656214216                                 784.8639789599027                                 962.3618042404499                                 1041.2563612921113                                1054.7435395301172                                1058.9288241481022
10                                                22.26965175172421                                 81.46875353776966                                 1070.3604506083157                                1133.1238911385913                                1148.5948049493845                                1150.0466471095788                                1149.6839678825445
15                                                38.04078452395055                                 159.06270538105497                                1120.964309900116                                 1153.8809751951708                                1161.1641375972517                                1161.4398735519621                                1160.666942756131
20                                                72.94957053218553                                 234.51477760901713                                1142.4408796415787                                1165.2963292688305                                1169.8475344025542                                1169.7258105711517                                1168.8063623348166
25                                                120.45312806898374                                302.2384247595886                                 1159.7840688597094                                1177.21640908884                                  1180.2481049792868                                1179.894145077902                                 1178.87875644512
30                                                172.4663726040153                                 362.3750032038947                                 1175.5780925692993                                1189.3043335290386                                1191.2911078499692                                1190.7715699295113                                1189.6808537035217
35                                                225.18751142744486                                416.0810907993616                                 1191.1477431902163                                1202.6651403270953                                1203.9885411236305                                1203.3534121338676                                1202.2009183759064
40                                                275.67900982603464                                464.18869508515024                                1206.474414643938                                 1216.5913699454209                                1217.4784973251535                                1216.7607656714245                                1215.5576988855832
45                                                322.8809937104036                                 507.62151889647373                                1222.6265580251625                                1231.7399909130377                                1232.3033983016526                                1231.517487262794                                 1230.2666869679247
50                                                366.51319909965935                                547.6282152929016                                 1241.059038945742                                 1249.3726849745535                                1249.6525587368592                                1248.7990308657645                                1247.4953021833812
55                                                406.7586394684332                                 584.1758187707128                                 1261.439598503192                                 1269.1741435493354                                1269.2173886830465                                1268.2984085544467                                1266.9377715145456
60                                                444.10285433123136                                618.0999555651143                                 1283.32782155112                                  1290.590015996198                                 1290.4089659285892                                1289.4221938752876                                1287.999836892894
65                                                478.4205663207151                                 649.1663848263588                                 1306.8541370279613                                1313.7789383251688                                1313.3952815433818                                1312.33963546499                                  1310.8509866607346
70                                                510.7637848389393                                 678.9313006757399                                 1331.2935232750633                                1337.7527825413204                                1337.1192392025337                                1335.9851797562696                                1334.4242084589746
75                                                540.7298770958964                                 706.7991050324555                                 1356.9234659238937                                1362.8897322718185                                1361.9854186006432                                1360.766643261849                                 1359.1278771198895
75.17306875641543                                 541.7245513001313                                 707.7297447327713                                 1357.8319324055528                                1363.7806428855079                                1362.8665828939402                                1361.6447623677377                                1360.00320546682
