% Model:              batchmodel_BILLETTA_r_0.0542379_COIL_kr_1.4848_COIL_kw_5.3284_FUNZ_freq_6066_FUNZ_I_eff_85.0125.mph
% Version:            COMSOL 5.6.0.401
% Date:               Jan 27 2022, 21:48
% Table:              Tabella delle sonde 1 - 
% Tempo (s)                                       Temperatura (degC), Punto: (0, 0.5)               Temperatura (degC), Punto: (0.5*BILLETTA_r, 0.5)  Temperatura (degC), Punto: (BILLETTA_r-10*FUNZ_depth_billetta, 0.5)Temperatura (degC), Punto: (BILLETTA_r-5*FUNZ_depth_billetta, 0.5)Temperatura (degC), Punto: (BILLETTA_r-2*FUNZ_depth_billetta, 0.5)Temperatura (degC), Punto: (BILLETTA_r-FUNZ_depth_billetta, 0.5)Temperatura (degC), Punto: (BILLETTA_r-0.01[mm], 0.5)
0                                                 20                                                20                                                20.00000000016007                                 20.000939867072418                                20.259485712332435                                20.518198784176718                                20.76711324745355
5                                                 20.168588165418782                                29.029928211729157                                563.443522337545                                  688.7941391855835                                 758.6432005421769                                 772.4572893769624                                 777.3071731996655
10                                                24.400516788146092                                78.19848608801618                                 953.3074348218457                                 1093.3116154538002                                1132.8615950325138                                1137.3705181842001                                1137.8185344270146
15                                                42.634936476175824                                148.72352727013492                                1068.7522628442216                                1134.6862468022255                                1150.366183433971                                 1151.6630110034007                                1151.0483628908823
20                                                76.24502692970901                                 219.62248873557775                                1112.690888853473                                 1152.8679563280657                                1161.5618181654309                                1161.856427999794                                 1160.8873458960798
25                                                120.61212329153017                                284.93390066744405                                1126.4918642405023                                1154.0516696313653                                1159.4301047916651                                1159.270177097576                                 1158.1576894028663
30                                                168.93663357582125                                342.4295946023875                                 1140.3806260503875                                1161.7288152793194                                1165.3972577795744                                1164.9848898243522                                1163.776002410565
35                                                216.90223247634447                                394.54636142524043                                1152.5700406182345                                1169.6550317116344                                1172.134542625201                                 1171.5410747521064                                1170.2573251616504
40                                                263.1177418641589                                 441.70371952507355                                1163.9266979692152                                1177.975219080553                                 1179.5911527609223                                1178.8605363535976                                1177.514537698189
45                                                307.48638326502805                                485.5771427068279                                 1175.2717795575918                                1186.9628110521317                                1187.8938444533846                                1187.0492635637588                                1185.6464366490327
50                                                349.709146104349                                  525.93561402154                                   1186.7381082238699                                1196.7718025053687                                1197.2019436875767                                1196.2670026341357                                1194.8124846461506
55                                                389.3502471176606                                 562.9696503281107                                 1198.4795458917024                                1207.2299688367493                                1207.2602930836083                                1206.248973495277                                 1204.7469446996197
60                                                426.39731432812073                                596.6785432357111                                 1210.499586514431                                 1218.3347138957351                                1218.0647557697685                                1216.9908636017312                                1215.4454906267006
65                                                461.01781957231015                                627.875493580501                                  1223.3107708074358                                1230.42613125758                                  1229.9039110257813                                1228.7720246772187                                1227.1824497637945
70                                                493.2198049088147                                 656.6414553288324                                 1236.9669034243334                                1243.53645379736                                  1242.8037443045341                                1241.6173939012106                                1239.9822463985397
75                                                523.4085946810329                                 683.5618819359056                                 1251.7581974001296                                1257.8709799947064                                1256.942197933121                                 1255.700299322908                                 1254.0158994805374
80                                                551.6620712812635                                 708.7729380687372                                 1267.7568189267226                                1273.4787707827572                                1272.361128938821                                 1271.0613847358818                                1269.3234496618516
85                                                578.2291229318017                                 734.4620164975506                                 1284.5707721326721                                1289.909680484935                                 1288.5957177008331                                1287.234502693847                                 1285.4392126178677
90                                                603.2045639703174                                 761.2822872264925                                 1302.1147267088136                                1307.0546139600651                                1305.5304209437659                                1304.1033420326125                                1302.2468078750162
95                                                626.5011018411427                                 788.6323973341695                                 1320.4672435663551                                1325.0140116469893                                1323.2716156992688                                1321.77498675471                                  1319.8533832467756
100                                               648.1187365442772                                 816.5123468205812                                 1339.6283227052973                                1343.7878735457089                                1341.819301967343                                 1340.2494368601392                                1338.2589387331473
101.75843389320207                                655.3223224457525                                 826.4432914145817                                 1346.5592041779441                                1350.583978635923                                 1348.5339690861224                                1346.9374716504894                                1344.921834987154
