% Model:              batchmodel_BILLETTA_r_0.0542379_COIL_kr_1.9397_COIL_kw_5.3284_FUNZ_freq_2540.9_FUNZ_I_eff_61.5962.mph
% Version:            COMSOL 5.6.0.401
% Date:               Jan 28 2022, 01:24
% Table:              Tabella delle sonde 1 - 
% Tempo (s)                                       Temperatura (degC), Punto: (0, 0.5)               Temperatura (degC), Punto: (0.5*BILLETTA_r, 0.5)  Temperatura (degC), Punto: (BILLETTA_r-10*FUNZ_depth_billetta, 0.5)Temperatura (degC), Punto: (BILLETTA_r-5*FUNZ_depth_billetta, 0.5)Temperatura (degC), Punto: (BILLETTA_r-2*FUNZ_depth_billetta, 0.5)Temperatura (degC), Punto: (BILLETTA_r-FUNZ_depth_billetta, 0.5)Temperatura (degC), Punto: (BILLETTA_r-0.01[mm], 0.5)
0                                                 20                                                20                                                20.000000000004775                                20.000015588592134                                20.057235889411515                                20.138117966308755                                20.23486638137348
5                                                 20.014839424308605                                21.75854817102254                                 137.07735624374533                                174.6703645484426                                 199.50237912787742                                205.4721831950037                                 207.9115940759258
10                                                21.89315676665109                                 39.545284571203354                                265.6499984696768                                 316.4400090411426                                 347.49775361771765                                354.37422003428014                                357.0744665997694
15                                                29.781672669576324                                72.90161544065757                                 389.2147208215474                                 453.7956246037551                                 490.801196661229                                  498.48411469548364                                501.35312201508646
20                                                45.50653778658699                                 114.77822013060035                                509.7309761668206                                 587.6562047785269                                 630.0853182921826                                 638.532234441245                                  641.5218852401098
25                                                68.66325240891308                                 161.32050448053548                                624.8499580015412                                 718.2623048374129                                 768.4126626824326                                 777.9952096639455                                 781.1265283200854
30                                                97.38928085426073                                 209.62170761010634                                724.5415786484833                                 836.2065724067119                                 894.2378827148781                                 904.5376987240162                                 907.5127753247235
35                                                131.04155959205553                                258.4961215743846                                 825.2839900547568                                 947.0992400152285                                 1001.4911703033885                                1010.2665174354521                                1012.3077048089959
40                                                168.0992642595628                                 306.7259875983118                                 908.4941157305428                                 1021.6082192551081                                1063.585467207473                                 1069.3973623536317                                1070.1141674615305
45                                                207.15149415434996                                353.31099781656735                                966.2751944883097                                 1054.765609655136                                 1080.8532114488557                                1083.488763151699                                 1082.9728036931224
50                                                246.6336151863377                                 397.4446334035855                                 998.1700762843747                                 1066.230819630924                                 1084.0366622396232                                1085.477211284655                                 1084.5589359685746
55                                                285.44804659991155                                438.4557728654411                                 1019.6706622280618                                1073.9901937550635                                1087.1301349671517                                1087.8700067357336                                1086.7048030755163
60                                                323.2279331218198                                 476.29574152910084                                1033.5994527214234                                1078.4748609698877                                1088.966068224298                                 1089.3272130170026                                1088.0300113386743
65                                                359.4080525194979                                 510.9979951860306                                 1044.0414745052612                                1082.2873610980942                                1090.907601182012                                 1090.9960535967489                                1089.6022657538037
70                                                393.4335038193608                                 542.9183942043883                                 1054.0345014331838                                1086.3586626156898                                1093.1827368405689                                1093.0004360846742                                1091.5081652454078
75                                                425.4747996361598                                 571.9754676176128                                 1062.561121654834                                 1090.2625213705492                                1095.6255880262133                                1095.2157711599111                                1093.6381026879208
80                                                455.67251037593576                                598.715195601586                                  1069.979540984401                                 1093.8907543627142                                1098.0533316487094                                1097.454684993074                                 1095.8046230635937
85                                                484.03799568768466                                623.1816994143387                                 1076.3187064273898                                1097.2346192050682                                1100.4511935732166                                1099.7020356990906                                1097.992577926434
90                                                510.54552833042123                                645.2626743608964                                 1081.5129443383535                                1100.3215281115718                                1102.857646541569                                 1101.9963251159115                                1100.240152167877
95                                                535.5646453273796                                 666.0167619628952                                 1086.500430334825                                 1103.098705499457                                 1104.944586256775                                 1103.97302977432                                  1102.1725133073737
100                                               558.922784186498                                  684.9496089953868                                 1090.84306508609                                  1105.5907959523788                                1106.8652273944563                                1105.8023709899303                                1103.9646966536557
105                                               580.6892482311945                                 702.2929431562733                                 1094.719686782399                                 1107.8833625213097                                1108.6725024817806                                1107.5319698257817                                1105.6622554622277
110                                               601.002992855499                                  718.5113859381646                                 1098.4888717512363                                1110.1479618773583                                1110.4725429393889                                1109.2573080459865                                1107.3565254765426
115                                               619.7818078941208                                 733.3300533758016                                 1101.938475517336                                 1112.2830959650728                                1112.202558245946                                 1110.9218957843918                                1108.9934697402186
120                                               637.3314590187036                                 748.1818293671487                                 1105.3111031650933                                1114.4403922168249                                1113.980916040567                                 1112.6383011039065                                1110.6831604334257
125                                               653.7146601705857                                 763.3606049701442                                 1108.65651410978                                  1116.6509501142787                                1115.8318940688087                                1114.4296122304127                                1112.4481738650506
130                                               668.8304058889956                                 778.3930468064283                                 1111.8945671170868                                1118.8646816322166                                1117.7163912181572                                1116.258643861187                                 1114.2521492127157
135                                               682.678696173933                                  793.2791548760009                                 1115.025262187014                                 1121.0815867706374                                1119.6344074886138                                1118.125395996231                                 1116.095086476419
140                                               695.2595310253981                                 808.0189291788623                                 1118.0485993195616                                1123.3016655295423                                1121.5859428801782                                1120.0298686355427                                1117.976985656163
145                                               706.9168723005321                                 822.7247382951783                                 1121.0126405963274                                1125.5034627311588                                1123.5343814575044                                1121.933769619789                                 1119.8592170103466
150                                               717.618082101587                                  837.3859197803985                                 1123.9128254962188                                1127.6890142172065                                1125.4831976382625                                1123.840732420399                                 1121.7454460429512
155                                               727.2298951561207                                 851.9589373262398                                 1126.7305327498548                                1129.8666326248317                                1127.4465779739485                                1125.7655930284586                                1123.6506395386114
160                                               735.7523114641338                                 866.4437909327029                                 1129.4657623572361                                1132.036317954035                                 1129.4245224645624                                1127.7083514439669                                1125.5747974973274
165                                               743.1853310256258                                 880.8404805997874                                 1132.118514318363                                 1134.1980702048158                                1131.4170311101057                                1129.6690076669238                                1127.5179199190989
170                                               751.7928143373025                                 894.6973844053404                                 1134.8187465385622                                1136.4120147463645                                1133.4630598522313                                1131.6832647811098                                1129.514481648313
175                                               761.3599479078626                                 908.0573559094588                                 1137.5541275550936                                1138.6724463947744                                1135.5589122344468                                1133.747734987634                                 1131.56121143142
180                                               771.0096170817125                                 921.0953724163024                                 1140.2743062162235                                1140.9560700563038                                1137.6894950885116                                1135.8485854120427                                1133.6447522655017
185                                               780.741821858852                                  933.8114339258708                                 1142.979282521951                                 1143.2628857309533                                1139.8548084144268                                1137.9858160543363                                1135.7651041505592
190                                               790.5565622392816                                 946.205540438165                                  1145.6690564722776                                1145.5928934187223                                1142.0548522121912                                1140.1594269145144                                1137.922267086591
195                                               804.5351631988575                                 957.651761853412                                  1148.4279553861734                                1148.0367268167365                                1144.3806376018933                                1142.4601310154367                                1140.2064841185243
200                                               820.4461072227267                                 968.7521689748509                                 1151.2240760781037                                1150.526887295353                                 1146.7547727324913                                1144.8093085053374                                1142.539022440872
205                                               836.3570512465959                                 979.8525760962892                                 1154.0201967700345                                1153.0170477739698                                1149.128907863089                                 1147.1584859952382                                1144.8715607632203
210                                               852.2679952704653                                 990.952983217728                                  1156.816317461965                                 1155.5072082525862                                1151.503042993687                                 1149.5076634851393                                1147.2040990855685
215                                               868.1789392943346                                 1002.0533903391669                                1159.6124381538957                                1157.9973687312026                                1153.877178124285                                 1151.85684097504                                  1149.5366374079163
220                                               883.9120181382276                                 1012.304083627589                                 1162.6412433399469                                1160.7637530673428                                1156.5385161464728                                1154.4939849385892                                1152.1563091540652
225                                               899.5614601862804                                 1022.1552195524856                                1165.7794627774692                                1163.6600249867688                                1159.334904376979                                 1157.2665381664378                                1154.9109984429874
230                                               915.2109022343333                                 1032.006355477382                                 1168.9176822149911                                1166.5562969061948                                1162.131292607486                                 1160.0390913942874                                1157.6656877319097
235                                               930.8603442823863                                 1041.857491402278                                 1172.0559016525135                                1169.4525688256208                                1164.9276808379923                                1162.8116446221366                                1160.420377020832
240                                               946.5097863304392                                 1051.7086273271743                                1175.1941210900359                                1172.3488407450468                                1167.7240690684994                                1165.5841978499857                                1163.1750663097537
245                                               960.510874124656                                  1060.734560437405                                 1178.562174475629                                 1175.5007926641965                                1170.7820205857174                                1168.6183498522573                                1166.1903126897123
250                                               973.7368632277263                                 1069.3724618972255                                1182.0383017124082                                1178.772971914745                                 1173.9629659076409                                1171.7755123464722                                1169.328079735214
