% Model:              batchmodel_BILLETTA_r_0.0542379_COIL_kr_2.7711_COIL_kw_3.7744_FUNZ_freq_4639.7_FUNZ_I_eff_85.0125.mph
% Version:            COMSOL 5.6.0.401
% Date:               Jan 28 2022, 04:21
% Table:              Tabella delle sonde 1 - 
% Tempo (s)                                       Temperatura (degC), Punto: (0, 0.5)               Temperatura (degC), Punto: (0.5*BILLETTA_r, 0.5)  Temperatura (degC), Punto: (BILLETTA_r-10*FUNZ_depth_billetta, 0.5)Temperatura (degC), Punto: (BILLETTA_r-5*FUNZ_depth_billetta, 0.5)Temperatura (degC), Punto: (BILLETTA_r-2*FUNZ_depth_billetta, 0.5)Temperatura (degC), Punto: (BILLETTA_r-FUNZ_depth_billetta, 0.5)Temperatura (degC), Punto: (BILLETTA_r-0.01[mm], 0.5)
0                                                 20                                                20                                                20.000000000093905                                20.00055065473066                                 20.197566701822097                                20.397376588097927                                20.59965026603504
5                                                 20.091333919117005                                27.317828402271914                                490.17223024546877                                605.9414619285367                                 667.7399613145722                                 679.7054998001166                                 684.0039155525857
10                                                23.760560474214174                                72.8342447815877                                  839.9667607927232                                 1013.2688422490888                                1077.8974797556116                                1087.1239998662481                                1089.247463930893
15                                                40.50747086150369                                 141.46889922504232                                1022.256259927307                                 1121.5326843760731                                1145.3798913525548                                1147.6186907883944                                1147.1571004482612
20                                                70.64031562712665                                 212.03190711016964                                1086.1202623038625                                1139.3412685651383                                1151.2078564908797                                1151.8307211894517                                1150.8329992599015
25                                                112.4458755143238                                 278.9390168508419                                 1108.9075050239107                                1144.009784610918                                 1151.031564119426                                 1150.9804427882864                                1149.762831271622
30                                                160.95678484616246                                340.0522732455713                                 1124.4867030614764                                1151.148426190763                                 1155.8889848213244                                1155.507189741118                                 1154.1686875853884
35                                                210.66746082222102                                395.21172177851736                                1137.394377387749                                 1158.3944956521545                                1161.5777610702294                                1160.9640186578572                                1159.5346493112766
40                                                259.19151665400113                                444.749939556781                                  1148.2768674304702                                1164.9150849449084                                1166.9005075729015                                1166.1071557830142                                1164.6051037859738
45                                                305.59841825014564                                489.30397946172207                                1157.998380570833                                 1171.6453007750338                                1172.784293705647                                 1171.8579101495789                                1170.2967000906779
50                                                349.50361349524246                                529.3927126041777                                 1166.8674529740133                                1178.4650258907695                                1179.0056101680657                                1177.979797019263                                 1176.369395612061
55                                                390.49825154485177                                565.580750028372                                  1175.3315174837849                                1185.4920391253095                                1185.5971875991959                                1184.4938649484675                                1182.840375756637
60                                                428.5285556672934                                 599.3881021690418                                 1184.491841193471                                 1193.2829289717338                                1192.972081132969                                 1191.7928102990768                                1190.0948984820325
65                                                463.65224517031413                                630.3880629183132                                 1194.035065050296                                 1201.6911979600886                                1201.027564854688                                 1199.780073937477                                 1198.0386133874913
70                                                495.95460905029495                                658.6755313269466                                 1203.973369200788                                 1210.7237872632213                                1209.7686480411717                                1208.4603759580195                                1206.6761897041192
75                                                526.6353147210982                                 685.5853489763202                                 1214.4780784993409                                1220.4783307991215                                1219.2657907332523                                1217.900108786729                                 1216.0733044200638
80                                                555.0554527105145                                 710.4066163951416                                 1225.457950097284                                 1230.9028314606803                                1229.4814678744183                                1228.063913665519                                 1226.194979799539
85                                                581.2196779181302                                 733.1652077779509                                 1236.9155773426933                                1241.9982071388458                                1240.4161107125938                                1238.95214278173                                  1237.041529800063
90                                                605.8160423022974                                 757.6856503553983                                 1249.2342892824367                                1253.9001335129865                                1252.133463045618                                 1250.6168537972335                                1248.6593612413844
95                                                628.4926424085835                                 782.011893675624                                  1262.2180326764355                                1266.539219398799                                 1264.6009231747598                                1263.031421875316                                 1261.0247394040825
100                                               649.2494782369884                                 806.1439377386279                                 1275.86680752469                                  1279.9154647962837                                1277.818491100018                                 1276.1958470159761                                1274.1376642881569
105                                               668.3934362146482                                 831.8968872176446                                 1289.9270839524702                                1293.6473233624847                                1291.36963593973                                  1289.6889908713333                                1287.5759425145784
110                                               685.7977770091246                                 858.5211320476786                                 1304.5035658640059                                1307.8923678165743                                1305.4263784846976                                1303.6847770442414                                1301.5139333976958
115                                               701.4462557104935                                 885.9205903909159                                 1319.609673761523                                 1322.6707951611725                                1320.010767630064                                 1318.2054983242224                                1315.9739855746793
120                                               715.5849371445402                                 912.9666000930644                                 1334.4182169334908                                1337.0931627818836                                1334.2244986703695                                1332.3539128045613                                1330.0615131617278
125                                               728.1433475687556                                 939.9824135563634                                 1349.1661054097158                                1351.4142098499156                                1348.3248489076655                                1346.3869933983956                                1344.032728378635
130                                               739.0914576721873                                 967.1057706901366                                 1363.954288064193                                 1365.742482350077                                 1362.421445840493                                 1360.4142379022092                                1357.9968048856044
131.07680501191118                                741.2385125372654                                 972.9611583839222                                 1367.144359230656                                 1368.8291790753474                                1365.4568118886104                                1363.4343955661311                                1361.0031881516502
