% Model:              batchmodel_BILLETTA_r_0.0542379_COIL_kr_2.7711_COIL_kw_5.8583_FUNZ_freq_2540.9_FUNZ_I_eff_85.0125.mph
% Version:            COMSOL 5.6.0.401
% Date:               Jan 28 2022, 05:21
% Table:              Tabella delle sonde 1 - 
% Tempo (s)                                       Temperatura (degC), Punto: (0, 0.5)               Temperatura (degC), Punto: (0.5*BILLETTA_r, 0.5)  Temperatura (degC), Punto: (BILLETTA_r-10*FUNZ_depth_billetta, 0.5)Temperatura (degC), Punto: (BILLETTA_r-5*FUNZ_depth_billetta, 0.5)Temperatura (degC), Punto: (BILLETTA_r-2*FUNZ_depth_billetta, 0.5)Temperatura (degC), Punto: (BILLETTA_r-FUNZ_depth_billetta, 0.5)Temperatura (degC), Punto: (BILLETTA_r-0.01[mm], 0.5)
0                                                 20                                                20                                                20.000000000034845                                20.00016010308525                                 20.106655823018627                                20.216798216033965                                20.33832937867237
5                                                 20.086058638572354                                25.005301363401827                                271.3890943984219                                 349.227262324654                                  397.11791834793075                                407.30053758499105                                411.19243474565917
10                                                22.692574660280115                                57.20718641051525                                 510.38282830485684                                626.9409368076867                                 689.9298801624161                                 702.1412289834966                                 706.4136145088296
15                                                35.0983457955017                                  111.75381117123021                                710.8582679307816                                 867.7979381289359                                 947.0262480988264                                 960.7020468615923                                 964.6602460917815
20                                                61.44703880689059                                 174.6874910360035                                 886.1037000791295                                 1040.788222488634                                 1090.7900425437801                                1097.0243807839556                                1097.6814835970972
25                                                97.954550233965                                   237.37030944444177                                993.3878093586683                                 1101.5176837946897                                1128.1032436060832                                1130.3851854454551                                1129.5478078612623
30                                                140.3310559912199                                 297.2730992034046                                 1046.2309897558462                                1117.5991711610213                                1133.5079148336158                                1134.3722019438082                                1133.0685583895697
35                                                185.2107956197122                                 352.72390514242477                                1093.7636301649482                                1146.1440476892635                                1156.2879283519237                                1156.2537679787597                                1154.5740746696824
40                                                230.48190706323885                                401.69175700290043                                1101.3150526731679                                1141.443626653866                                 1148.6323273372113                                1148.2202844757703                                1146.4455217134177
45                                                274.08057474098075                                446.2303771090634                                 1108.8513158673463                                1140.731646558298                                 1145.8425462327286                                1145.1549495773666                                1143.3008513281816
50                                                315.60669806386716                                486.9135611352232                                 1117.1859750112753                                1143.1868524235947                                1146.7358251872292                                1145.8293939569367                                1143.9010615817242
55                                                355.36405002767617                                524.8345522663499                                 1125.0859151868194                                1146.378585076383                                 1148.6608362972847                                1147.5725067957524                                1145.5782178460786
60                                                392.80133680850406                                559.7476392469536                                 1132.4558521993627                                1150.0497257185434                                1151.3202351538466                                1150.082460609593                                 1148.030085685631
65                                                428.26697711263694                                592.1045378652135                                 1139.3753799403767                                1154.1282786524284                                1154.6037341536062                                1153.2440940907486                                1151.1403218153941
70                                                461.467894021113                                  621.9211184068632                                 1145.835856520484                                 1158.163938854168                                 1157.9587477957557                                1156.4931106934537                                1154.3428175533727
75                                                492.5010779869767                                 649.1921287824215                                 1151.8401418740973                                1162.305729619175                                 1161.5681479292925                                1160.0162579030398                                1157.8249200906498
80                                                521.7203828547723                                 674.8782384627675                                 1157.735284159421                                 1166.6403592818979                                1165.4481459987342                                1163.8198810841645                                1161.5896753125098
85                                                549.3796147164209                                 699.6912513766746                                 1163.7780242106046                                1171.2194093958124                                1169.5952543707294                                1167.892858620101                                 1165.6234675913906
90                                                575.2990945160129                                 723.1272542533991                                 1169.7866053552834                                1176.0063634030985                                1174.0119420745405                                1172.2430639294043                                1169.9359359516652
95                                                599.4788222535485                                 745.1862470929404                                 1175.761027593458                                 1181.0012213037553                                1178.6982091101672                                1176.8704970120752                                1174.527080393333
100                                               621.9187979290276                                 765.8682298952991                                 1181.701290925129                                 1186.2039830977828                                1183.6540554776102                                1181.7751578681136                                1179.3969009163948
105                                               642.7323661572472                                 788.148043674796                                  1187.9689444698033                                1191.749255936552                                 1188.9566079115084                                1187.0263543060446                                1184.6120393463816
110                                               661.8856847303358                                 811.1374663648518                                 1194.4560376161544                                1197.5968490866444                                1194.5828380660432                                1192.6033925393353                                1190.1525979006196
115                                               679.3518470777127                                 834.1303085283924                                 1201.0767431996533                                1203.7148085216118                                1200.514437034939                                 1198.4898197753664                                1196.002756656957
120                                               695.130853199378                                  857.1265701654173                                 1207.8310612203013                                1210.1031342414544                                1206.751404818196                                 1204.6856360141373                                1202.1625156153955
125                                               709.6544835971519                                 879.8164424730472                                 1214.9286188195397                                1216.8675736571427                                1213.3703563885697                                1211.2633892979088                                1208.7033108619921
130                                               723.2569255164319                                 901.9601412322223                                 1222.531662130912                                 1224.089972604308                                 1220.4305898074444                                1218.2792299861812                                1215.6804321301233
135                                               735.5556691314398                                 923.8321228176852                                 1230.4544846646304                                1231.6766505587557                                1227.8642326726222                                1225.6688885279004                                1223.0305949390904
140                                               746.5507144421761                                 945.4323872294345                                 1238.6970864206955                                1239.627607520487                                 1235.6712849841028                                1233.4323649230664                                1230.7537992888952
145                                               757.1667858214281                                 966.6595757140766                                 1247.2473602671016                                1247.9171900101087                                1243.822068090254                                 1241.5393095174204                                1238.8193456112363
150                                               772.510586318928                                  986.9539441247988                                 1256.0384457103255                                1256.4037291095106                                1252.1526844392606                                1249.8221192104875                                1247.0576984383838
155                                               789.0177460366039                                 1006.7061819471829                                1265.11700994996                                  1265.1861067043815                                1260.7775310294141                                1258.3977773945544                                1255.587189913787
160                                               806.6882649744558                                 1025.9162891812289                                1274.483052986006                                 1274.26432279472                                  1269.6966078607156                                1267.2662840696203                                1264.4078200374456
165                                               825.5221431324838                                 1044.584265826937                                 1284.1365748184621                                1283.6383773805273                                1278.9099149331637                                1276.4276392356846                                1273.5195888093604
170                                               847.2428103293961                                 1062.9637900044481                                1293.7088190502764                                1292.9002378610658                                1288.0015104055697                                1285.4657386165645                                1282.5074200263834
175                                               871.1183959287658                                 1080.947134920817                                 1303.3563815439943                                1302.223179107144                                 1297.1480278818808                                1294.5572847957496                                1291.5475796911492
180                                               896.9295913153438                                 1098.502019715725                                 1313.1261870156236                                1311.6591237811604                                1306.4023964853045                                1303.755227566507                                 1300.6928867733345
185                                               924.6763964891298                                 1115.6284443891723                                1323.0182354651643                                1321.2080718831153                                1315.7646162158412                                1313.0595669288364                                1309.9433412729386
190                                               951.8931596976685                                 1132.5435913722526                                1332.7104731342483                                1330.551649674414                                 1324.9222456322263                                1322.1599106707758                                1318.990446551115
195                                               977.6940126488224                                 1149.3254907554392                                1342.0871913821006                                1339.5754706851149                                1333.7630296417888                                1330.944739954181                                 1327.7233648180932
200                                               1003.6192616446359                                1165.8384674714898                                1351.3495789747826                                1348.478424752549                                 1342.4821521428717                                1339.6079585125021                                1336.3348156323027
205                                               1029.6689066851095                                1182.0825215204045                                1360.497635912292                                 1357.260511876717                                 1351.0796131354746                                1348.1495663457395                                1344.824798993744
210                                               1054.3460685944142                                1197.553959506794                                 1368.773085478474                                 1365.1882871915495                                1358.8378393190205                                1355.8568973582032                                1352.485077038004
215                                               1074.7159481862113                                1211.4603826885354                                1374.8006020343737                                1370.9379191987723                                1364.4637878783615                                1361.4462418975863                                1358.0403011121375
220                                               1095.0858277780085                                1225.366805870276                                 1380.8281185902729                                1376.6875512059955                                1370.0897364377024                                1367.0355864369694                                1363.595525186271
225                                               1115.4557073698056                                1239.273229052017                                 1386.855635146172                                 1382.4371832132183                                1375.715684997043                                 1372.624930976353                                 1369.150749260405
230                                               1135.8255869616028                                1253.1796522337581                                1392.8831517020717                                1388.186815220441                                 1381.3416335563838                                1378.2142755157356                                1374.7059733345386
233.72071355498147                                1150.983684383711                                 1263.528015680481                                 1397.368484212554                                 1392.4653619695273                                1385.528142169257                                 1382.373545513965                                 1378.8398528372563
