% Model:              batchmodel_BILLETTA_r_0.0542379_COIL_kr_1.6756_COIL_kw_5.8583_FUNZ_freq_6066_FUNZ_I_eff_61.5962.mph
% Version:            COMSOL 5.6.0.401
% Date:               Jan 28 2022, 00:04
% Table:              Tabella delle sonde 1 - 
% Tempo (s)                                       Temperatura (degC), Punto: (0, 0.5)               Temperatura (degC), Punto: (0.5*BILLETTA_r, 0.5)  Temperatura (degC), Punto: (BILLETTA_r-10*FUNZ_depth_billetta, 0.5)Temperatura (degC), Punto: (BILLETTA_r-5*FUNZ_depth_billetta, 0.5)Temperatura (degC), Punto: (BILLETTA_r-2*FUNZ_depth_billetta, 0.5)Temperatura (degC), Punto: (BILLETTA_r-FUNZ_depth_billetta, 0.5)Temperatura (degC), Punto: (BILLETTA_r-0.01[mm], 0.5)
0                                                 20                                                20                                                20.000000000021714                                20.000101840126717                                20.140812273103336                                20.333399671192524                                20.533701115790336
5                                                 20.099367795216438                                25.619315200596645                                330.0219440995405                                 388.3869111536677                                 422.9177364008473                                 430.28092871116087                                433.1255938751525
10                                                23.03334210326176                                 58.017715520013155                                590.8757602990547                                 681.2819020552213                                 731.0261534291716                                 740.7633027036954                                 744.1789067720864
15                                                36.051678049527936                                112.88078010311                                   804.2561578700119                                 928.8486167807561                                 985.321220916347                                  994.8961288011752                                 997.6923250809888
20                                                61.44073552265678                                 174.5153943952006                                 952.9904730136346                                 1047.2987166863995                                1077.5376894060691                                1081.2975208050225                                1081.6890035133824
25                                                96.00471604297252                                 236.20171530176003                                1009.8279543472289                                1069.657233034317                                 1086.0789199568571                                1087.842062614287                                 1087.5552595856611
30                                                137.57373565809382                                294.4602657154443                                 1041.4308087998284                                1083.6196299452763                                1094.2357520510727                                1095.0384758716632                                1094.398326292337
35                                                182.7697592270846                                 348.0283777650526                                 1061.5407960421776                                1094.0956795563015                                1101.8928428777845                                1102.2388060031312                                1101.4254107338293
40                                                228.58879457969778                                396.60382238462296                                1072.2457940789068                                1099.2054062551579                                1105.2702931490785                                1105.3651438265233                                1104.462183318392
45                                                273.414053398781                                  440.3905118257163                                 1077.4614261564925                                1101.8205404902906                                1107.0668331773336                                1107.0444112755044                                1106.0994376961075
50                                                315.31072865853434                                480.01918879222353                                1086.8618819936983                                1107.1476318854106                                1111.1658128029312                                1110.950344470206                                 1109.9312049010136
55                                                354.55782442293616                                515.7263625359836                                 1097.5667236965032                                1113.5833534466692                                1116.3256196129028                                1115.9030281227065                                1114.801912232998
60                                                391.3010712801322                                 548.2387781909258                                 1105.1634881836321                                1118.636903124952                                 1120.5865616544897                                1120.0364606823546                                1118.883135351562
65                                                425.477841261463                                  577.5650193537851                                 1111.6101359293343                                1123.2714495021464                                1124.6412803461512                                1123.9967141139582                                1122.8029144817829
70                                                457.0845254776557                                 604.2641832482549                                 1117.126889904644                                 1127.3557887771608                                1128.2693824572684                                1127.5497349618008                                1126.322879557546
75                                                486.5203488830357                                 628.7741625860167                                 1122.1566532602556                                1131.2450923096276                                1131.791909720841                                 1131.010788011949                                 1129.755669141009
80                                                514.3212149295612                                 652.0163918465747                                 1127.4268213940604                                1135.3402885479663                                1135.5109465093597                                1134.6660779182657                                1133.3813907794315
85                                                540.2356820965338                                 673.5585415013476                                 1132.5961063290424                                1139.4532651402342                                1139.2847573036374                                1138.381319795787                                 1137.0686203004461
90                                                564.2637503839534                                 693.4006115503347                                 1137.664508065202                                 1143.584022086432                                 1143.1133421036725                                1142.1565136445124                                1140.8173577040538
95                                                586.730249655116                                  712.2043144342836                                 1142.6413070944836                                1147.743857738837                                 1147.0062643428237                                1146.0013120886742                                1144.6373220300297
100                                               607.7192646798829                                 730.1409396329536                                 1147.5289057453601                                1151.935696764971                                 1150.9659995911784                                1149.9182137861203                                1148.5310291284081
105                                               627.063153588081                                  746.868983104944                                  1152.3225144365729                                1156.1537081833885                                1154.9876122438723                                1153.9022371013502                                1152.4934630872053
110                                               644.7619163797106                                 762.3884448502548                                 1157.0221331681205                                1160.3978919940892                                1159.0711023009048                                1157.9533820343654                                1156.5246239064209
115                                               661.1954887634649                                 778.6622721987518                                 1161.9613057112542                                1164.9014614124858                                1163.4183913443253                                1162.2684425163766                                1160.8190888551012
120                                               676.3287446966681                                 795.5089855734924                                 1167.1091950783593                                1169.6428552713346                                1168.010811199635                                 1166.8292244375175                                1165.358868759552
125                                               690.0461849655412                                 812.331855401283                                  1172.3644050530265                                1174.5511775153113                                1172.7869783657884                                1171.5759030858408                                1170.0848127658792
130                                               702.347809570084                                  829.1308816821235                                 1177.7269356352563                                1179.6264281444155                                1177.7468928427852                                1176.508478461345                                 1174.9969208740831
135                                               713.6654929796872                                 846.0621623067035                                 1183.426637797525                                 1185.02854115126                                  1183.028846758576                                 1181.7615591073168                                1180.2281528747362
140                                               723.8503023029817                                 863.0718665629882                                 1189.3842469100837                                1190.7023629353512                                1188.5851497588355                                1187.288724961967                                 1185.7326572821653
145                                               732.8372314379146                                 880.1364984674645                                 1195.5651656145947                                1196.6238200999446                                1194.3949859981744                                1193.0697146361122                                1191.4904208788103
150                                               740.6262803844862                                 897.2560580201331                                 1201.969393911058                                 1202.7929126450408                                1200.4583554765914                                1199.1045281297538                                1197.5014436646702
155                                               749.8181087475731                                 913.7009045851229                                 1208.5711262213604                                1209.1589877271617                                1206.7194169256236                                1205.3376073626137                                1203.7113387008721
160                                               759.020793509709                                  929.8615558578834                                 1215.3841741870124                                1215.7491557219232                                1213.208057665685                                 1211.7986880873445                                1210.1492149226742
165                                               768.1462247002768                                 945.7627319574461                                 1222.4094120972627                                1222.5651327403234                                1219.9261695908608                                1218.4896526036573                                1216.8169149516862
170                                               777.8741298432816                                 961.382344474357                                  1229.6527474378076                                1229.6123115270475                                1226.8788116550118                                1225.4154457778586                                1223.7192846903763
175                                               795.5515548978302                                 976.6229127190019                                 1237.0632533012554                                1236.8268892577353                                1233.9966188855283                                1232.5052539913954                                1230.7844792487713
180                                               813.2289799523788                                 991.8634809636468                                 1244.473759164703                                 1244.0414669884221                                1241.1144261160453                                1239.5950622049322                                1237.8496738071658
185                                               830.9064050069275                                 1007.1040492082919                                1251.8842650281508                                1251.25604471911                                  1248.2322333465618                                1246.6848704184695                                1244.9148683655612
190                                               849.2472575565702                                 1022.2197579227228                                1259.301973305573                                 1258.478928088342                                 1255.3584473437581                                1253.7829939877156                                1251.988222102647
195                                               870.2779035046746                                 1036.829237482365                                 1266.7488829738118                                1265.7354857503838                                1262.5187456466024                                1260.9148312469383                                1259.0946563272655
200                                               891.3085494527792                                 1051.4387170420073                                1274.19579264205                                  1272.9920434124251                                1269.6790439494462                                1268.0466685061615                                1266.2010905518846
205                                               912.3391954008836                                 1066.0481966016491                                1281.6427023102888                                1280.2486010744674                                1276.8393422522904                                1275.1785057653842                                1273.3075247765037
210                                               932.9182640914574                                 1080.311656827313                                 1289.0166769619318                                1287.434839085613                                 1283.9300948798032                                1282.2408843733438                                1280.3444891593945
215                                               952.5254945158537                                 1093.8304497253175                                1296.2336883500589                                1294.4697423551056                                1290.871178436505                                 1289.1537811947674                                1287.2319476727794
220                                               972.1327249402497                                 1107.3492426233215                                1303.4506997381864                                1301.5046456245973                                1297.812261993207                                 1296.0666780161905                                1294.1194061861638
225                                               991.7399553646457                                 1120.8680355213255                                1310.6677111263134                                1308.5395488940899                                1304.7533455499088                                1302.9795748376146                                1301.0068646995487
230                                               1011.3471857890416                                1134.3868284193295                                1317.8847225144405                                1315.574452163582                                 1311.6944291066106                                1309.8924716590377                                1307.8943232129332
235                                               1030.1494380640856                                1147.5571109246266                                1324.9898118817023                                1322.5004377229175                                1318.5278006206759                                1316.6979150583988                                1314.67449505795
240                                               1047.2192989134528                                1159.977365101117                                 1331.8540341528214                                1329.1920217555385                                1325.1293653220282                                1323.2721082217258                                1321.223775537133
245                                               1064.2891597628195                                1172.3976192776067                                1338.718256423941                                 1335.883605788159                                 1331.7309300233806                                1329.8463013850524                                1327.7730560163163
250                                               1081.3590206121867                                1184.817873454097                                 1345.5824786950602                                1342.57518982078                                  1338.3324947247324                                1336.4204945483789                                1334.3223364954993
