% Model:              batchmodel_BILLETTA_r_0.0542379_COIL_kr_1.6756_COIL_kw_4.5299_FUNZ_freq_6066_FUNZ_I_eff_61.5962.mph
% Version:            COMSOL 5.6.0.401
% Date:               Jan 27 2022, 23:19
% Table:              Tabella delle sonde 1 - 
% Tempo (s)                                       Temperatura (degC), Punto: (0, 0.5)               Temperatura (degC), Punto: (0.5*BILLETTA_r, 0.5)  Temperatura (degC), Punto: (BILLETTA_r-10*FUNZ_depth_billetta, 0.5)Temperatura (degC), Punto: (BILLETTA_r-5*FUNZ_depth_billetta, 0.5)Temperatura (degC), Punto: (BILLETTA_r-2*FUNZ_depth_billetta, 0.5)Temperatura (degC), Punto: (BILLETTA_r-FUNZ_depth_billetta, 0.5)Temperatura (degC), Punto: (BILLETTA_r-0.01[mm], 0.5)
0                                                 20                                                20                                                20.00000000002177                                 20.000101840116315                                20.140812267542287                                20.333399661245267                                20.53370110405058
5                                                 20.099367858803305                                25.619316714927493                                330.02093827648946                                388.3854218940088                                 422.9157380319466                                 430.2788421026015                                 433.1234800087501
10                                                22.431918562961584                                56.81638865243201                                 586.3418122146047                                 671.861706134028                                  718.7042409484351                                 728.4545637940347                                 731.9588709813139
15                                                32.410449287542235                                109.17418262356404                                806.529441103789                                  933.9426508691582                                 991.9485613897774                                 1001.7298961598607                                1004.5806801789673
20                                                54.931550205181566                                171.5600250606861                                 970.6940446923812                                 1057.0585125098723                                1081.322135017157                                 1083.965150658507                                 1083.911292866237
25                                                90.20278293407165                                 234.4801328756999                                 1017.6662838609669                                1075.8594668019473                                1091.5442861976094                                1093.0888137433221                                1092.7050946403133
30                                                133.49767405801612                                293.7087214199422                                 1045.061141131172                                 1087.121951605061                                 1097.6854816414766                                1098.4473205436025                                1097.7821910195084
35                                                180.04016850517388                                347.8302667824332                                 1066.825402194384                                 1098.9974816340314                                1106.3509440410721                                1106.5996380062948                                1105.7406011436342
40                                                226.65014592442378                                396.72076432200083                                1075.7072362728486                                1101.406562982154                                 1107.053430892891                                 1107.0783163712122                                1106.1473470961769
45                                                271.6795269810349                                 440.70849398184964                                1083.8800340188568                                1105.5340331393536                                1109.9772091791733                                1109.8192078506095                                1108.8205801333052
50                                                314.34072448207485                                480.19145492389293                                1091.3616276186249                                1109.6646948824805                                1113.0984168196728                                1112.7851671548715                                1111.7278048404278
55                                                354.3260800955369                                 515.9341178353839                                 1097.9906531750812                                1113.7463838658814                                1116.396930206094                                 1115.960411660299                                 1114.8545211760538
60                                                391.6612854682046                                 547.8851698941286                                 1103.7697115813007                                1117.7858875185348                                1119.8800309726416                                1119.3521906892101                                1118.2079454461323
65                                                426.1045951896789                                 577.1893097214313                                 1109.439010598424                                 1121.7928059220853                                1123.3628500157893                                1122.7493829750138                                1121.5687394406186
70                                                457.70693722609144                                603.6053862132406                                 1114.8426123092527                                1125.7651166487562                                1126.884333297024                                 1126.1964649638057                                1124.9831106507513
75                                                486.97281601563213                                627.9027465828588                                 1120.0953390860955                                1129.671367156278                                 1130.3695859101194                                1129.612172501214                                 1128.367851013803
80                                                513.9675126819258                                 650.194959218305                                  1125.2194144077412                                1133.5074369177592                                1133.8068719359385                                1132.9836740774504                                1131.7097927470472
85                                                539.2161051035583                                 671.0042717031853                                 1130.262585993557                                 1137.4037643792335                                1137.3448561652958                                1136.4615801107507                                1135.159808941176
90                                                563.1320275520305                                 690.7936829626402                                 1135.279792616982                                 1141.4413975004836                                1141.0684153900766                                1140.1308751220981                                1138.8026980859681
95                                                585.4418591741752                                 709.2569930276441                                 1140.2347010387539                                1145.5667359782956                                1144.9214171450958                                1143.9353554006857                                1142.5823795005963
100                                               606.1455999699917                                 726.3942018981968                                 1145.1273112588724                                1149.7797798126703                                1148.9038614303536                                1147.8750209465134                                1146.4988531850618
105                                               625.3581669476108                                 742.8150600205175                                 1150.0255369970914                                1154.1063930950718                                1153.030485263485                                 1151.9630465500381                                1150.564731745841
110                                               643.3687169371759                                 760.0538355510411                                 1155.1002643236866                                1158.6116556498364                                1157.3383702686515                                1156.23258292331                                  1154.8117513146685
115                                               659.9497546790074                                 776.9034370560524                                 1160.2170479588635                                1163.2443656722899                                1161.798342333957                                 1160.6575486148117                                1159.2149433665868
120                                               675.101280173105                                  793.363864535551                                  1165.3758879026227                                1168.0045231624313                                1166.4104014594027                                1165.2379436245428                                1163.7743079015959
125                                               688.8232934194689                                 809.4351179895376                                 1170.5767841549641                                1172.892128120262                                 1171.1745476449878                                1169.9737679525033                                1168.4898449196944
130                                               701.4515000501492                                 826.3824315933385                                 1176.2160907193288                                1178.1747317761692                                1176.319597599052                                 1175.0876260107038                                1173.5814632968263
135                                               712.7889959518709                                 843.4636974119259                                 1182.0613309073924                                1183.6954051639818                                1181.7113416248949                                1180.4489518503674                                1178.9201781185743
140                                               722.8277924968536                                 860.6488072674296                                 1188.1030728708324                                1189.4477814939078                                1187.3443346797812                                1186.0524482598312                                1184.5007563176705
145                                               731.5678896850972                                 877.9377611598501                                 1194.3413166096489                                1195.4318607659457                                1193.2185767637116                                1191.8981152390947                                1190.323197894113
150                                               740.6635863256635                                 894.8697001805248                                 1200.7850678583327                                1201.6296207307955                                1199.3085940518909                                1197.9597806732077                                1196.3615940707891
155                                               750.1510651510511                                 911.4345444487689                                 1207.4345235898109                                1208.0406672068116                                1205.613829382226                                 1204.2368721271132                                1202.6153781723506
160                                               759.3486466108515                                 927.8221980447514                                 1214.2859728511398                                1214.6724265420848                                1212.1447796403677                                1210.7401742277802                                1209.095226313318
165                                               768.2563307050644                                 944.032660968472                                  1221.3394156423187                                1221.5248987366144                                1218.9014448263174                                1217.4696869752092                                1215.8011384936908
170                                               780.0264094085331                                 959.8492952353073                                 1228.6272401273059                                1228.622626006123                                 1225.9053995759346                                1224.4463998500541                                1222.7537909255198
175                                               797.6097674617321                                 975.2021521784408                                 1236.0416209339387                                1235.8383084335437                                1233.0233787067546                                1231.5362020721782                                1229.8188978004487
180                                               815.193125514931                                  990.5550091215745                                 1243.4560017405715                                1243.0539908609649                                1240.141357837574                                 1238.6260042943027                                1236.8840046753776
185                                               832.77648356813                                   1005.9078660647082                                1250.8703825472044                                1250.2696732883855                                1247.2593369683937                                1245.7158065164272                                1243.9491115503065
190                                               850.4702611160336                                 1021.2314787264294                                1258.2862209637915                                1257.4870921385045                                1254.3790949272484                                1252.8073747968701                                1251.01595690659
195                                               871.1076601398178                                 1035.7754818179146                                1265.7409171199197                                1264.7508014662026                                1261.546273827672                                 1259.94602359701                                  1258.129147621229
200                                               891.7450591636019                                 1050.3194849094002                                1273.1956132760483                                1272.0145107939006                                1268.7134527280964                                1267.0846723971504                                1265.2423383358687
205                                               912.3824581873861                                 1064.8634880008863                                1280.6503094321765                                1279.2782201215987                                1275.8806316285204                                1274.2233211972903                                1272.3555290505083
210                                               933.0198572111702                                 1079.4074910923714                                1288.1050055883047                                1286.5419294492967                                1283.0478105289444                                1281.3619699974302                                1279.4687197651474
215                                               952.5746211857175                                 1093.111937038056                                 1295.3869729000398                                1293.6397533145182                                1290.0511021347388                                1288.3369493261152                                1286.4182015300166
220                                               971.7174496809474                                 1106.4969370397775                                1302.6032180283328                                1300.6744588578777                                1296.9920357083283                                1295.2496535028727                                1293.3053931217205
225                                               990.8602781761773                                 1119.8819370415                                   1309.8194631566248                                1307.709164401237                                 1303.932969281917                                 1302.1623576796305                                1300.192584713424
230                                               1010.0031066714072                                1133.2669370432213                                1317.0357082849173                                1314.743869944596                                 1310.873902855506                                 1309.075061856388                                 1307.0797763051278
235                                               1029.1459351666372                                1146.6519370449437                                1324.2519534132098                                1321.7785754879555                                1317.814836429095                                 1315.9877660331454                                1313.9669678968312
240                                               1046.528054845906                                 1159.2302688702157                                1331.1805389364804                                1328.5329011845834                                1324.4784995132804                                1322.623911951313                                 1320.5780976511778
245                                               1063.240236460124                                 1171.5016687869465                                1337.999671881656                                 1335.1805442030213                                1331.0366630091844                                1329.1548292803163                                1327.0841877013572
250                                               1079.952418074342                                 1183.773068703677                                 1344.8188048268316                                1341.8281872214598                                1337.5948265050883                                1335.6857466093188                                1333.5902777515357
