% Model:              batchmodel_BILLETTA_r_0.0542379_COIL_kr_2.7711_COIL_kw_4.5299_FUNZ_freq_6066_FUNZ_I_eff_127.5152.mph
% Version:            COMSOL 5.6.0.401
% Date:               Jan 28 2022, 04:47
% Table:              Tabella delle sonde 1 - 
% Tempo (s)                                       Temperatura (degC), Punto: (0, 0.5)               Temperatura (degC), Punto: (0.5*BILLETTA_r, 0.5)  Temperatura (degC), Punto: (BILLETTA_r-10*FUNZ_depth_billetta, 0.5)Temperatura (degC), Punto: (BILLETTA_r-5*FUNZ_depth_billetta, 0.5)Temperatura (degC), Punto: (BILLETTA_r-2*FUNZ_depth_billetta, 0.5)Temperatura (degC), Punto: (BILLETTA_r-FUNZ_depth_billetta, 0.5)Temperatura (degC), Punto: (BILLETTA_r-0.01[mm], 0.5)
0                                                 20                                                20                                                20.000000003027196                                20.019820539350803                                20.521325048043877                                20.888515657824314                                21.221266438260784
5                                                 20.111609001357067                                33.623704378549746                                1041.0763102867345                                1195.499684882754                                 1233.254955107066                                 1237.3508809143627                                1237.4544134580192
10                                                26.305164481742736                                103.88152642697452                                1223.5248242845296                                1275.3412892629171                                1286.5838353561549                                1287.0022952400004                                1285.7984098326324
15                                                51.892748944272                                   189.11985271173916                                1276.4520108871557                                1306.002718208449                                 1311.3250000824564                                1310.874807611272                                 1309.3300160310705
20                                                95.2216076830764                                  269.88071420415963                                1309.1971728303993                                1330.6121859010782                                1333.764244282425                                 1332.9726033900342                                1331.2636057212767
25                                                146.81625716559608                                344.3383687552099                                 1344.7719565010361                                1362.2777964483803                                1364.2961687571833                                1363.2876101026004                                1361.4336535606908
27.16384030374718                                 170.3280976361392                                 374.9224850193864                                 1361.1179497436297                                1377.3978763824707                                1379.0161693957875                                1377.9226314061325                                1376.0045040195296
