% Model:              batchmodel_BILLETTA_r_0.0542379_COIL_kr_1.4848_COIL_kw_5.8583_FUNZ_freq_4639.7_FUNZ_I_eff_174.7421.mph
% Version:            COMSOL 5.6.0.401
% Date:               Jan 27 2022, 22:09
% Table:              Tabella delle sonde 1 - 
% Tempo (s)                                       Temperatura (degC), Punto: (0, 0.5)               Temperatura (degC), Punto: (0.5*BILLETTA_r, 0.5)  Temperatura (degC), Punto: (BILLETTA_r-10*FUNZ_depth_billetta, 0.5)Temperatura (degC), Punto: (BILLETTA_r-5*FUNZ_depth_billetta, 0.5)Temperatura (degC), Punto: (BILLETTA_r-2*FUNZ_depth_billetta, 0.5)Temperatura (degC), Punto: (BILLETTA_r-FUNZ_depth_billetta, 0.5)Temperatura (degC), Punto: (BILLETTA_r-0.01[mm], 0.5)
0                                                 20                                                20                                                20.00000002206241                                 20.06674414580442                                 20.6514304008237                                  21.013846228224338                                21.35045179640838
5                                                 20.120772029440673                                37.32803632045358                                 1246.6252756724189                                1361.4574611964126                                1387.49774435479                                  1389.5380653571606                                1388.3883556670262
5.54454704118105                                  20.228795200899867                                43.75836460420845                                 1279.1545778849218                                1375.7852812714004                                1396.9133617292914                                1398.2781630485856                                1396.8794257375494
