% Model:              batchmodel_BILLETTA_r_0.0542379_COIL_kr_2.4069_COIL_kw_4.5299_FUNZ_freq_6066_FUNZ_I_eff_127.5152.mph
% Version:            COMSOL 5.6.0.401
% Date:               Jan 28 2022, 03:00
% Table:              Tabella delle sonde 1 - 
% Tempo (s)                                       Temperatura (degC), Punto: (0, 0.5)               Temperatura (degC), Punto: (0.5*BILLETTA_r, 0.5)  Temperatura (degC), Punto: (BILLETTA_r-10*FUNZ_depth_billetta, 0.5)Temperatura (degC), Punto: (BILLETTA_r-5*FUNZ_depth_billetta, 0.5)Temperatura (degC), Punto: (BILLETTA_r-2*FUNZ_depth_billetta, 0.5)Temperatura (degC), Punto: (BILLETTA_r-FUNZ_depth_billetta, 0.5)Temperatura (degC), Punto: (BILLETTA_r-0.01[mm], 0.5)
0                                                 20                                                20.000000000000057                                20.000000003027196                                20.01982054810952                                 20.52132510467078                                 20.888515730212987                                21.221266521621374
5                                                 20.093769706449166                                33.306583781867005                                1050.1014552935258                                1199.270965533738                                 1235.5913297377192                                1239.570164969597                                 1239.6471267678994
10                                                26.484018534559766                                104.42790819944855                                1220.2388519719984                                1271.1409986785848                                1282.161483826742                                 1282.5582595445912                                1281.357462756655
15                                                50.64618553054032                                 189.96930178717423                                1294.4606837292713                                1324.2498405996243                                1329.449234192729                                 1328.9368629611695                                1327.32776149562
20                                                94.70289863866338                                 270.7411369547506                                 1316.4372827910584                                1337.9968633946746                                1341.1500441032604                                1340.3425883381242                                1338.6104066874796
25                                                147.4260253698909                                 344.41158540600793                                1349.0728281019487                                1366.7998907984124                                1368.849661200718                                 1367.835132050427                                 1365.9677129998604
27.53050472546506                                 175.31204473169845                                379.5394927218341                                 1366.330139770328                                 1382.5485547702547                                1384.1243149968313                                1383.0142217010266                                1381.0778242191031
