% Model:              batchmodel_BILLETTA_r_0.0542379_COIL_kr_1.4848_COIL_kw_5.8583_FUNZ_freq_6066_FUNZ_I_eff_162.3068.mph
% Version:            COMSOL 5.6.0.401
% Date:               Jan 27 2022, 22:14
% Table:              Tabella delle sonde 1 - 
% Tempo (s)                                       Temperatura (degC), Punto: (0, 0.5)               Temperatura (degC), Punto: (0.5*BILLETTA_r, 0.5)  Temperatura (degC), Punto: (BILLETTA_r-10*FUNZ_depth_billetta, 0.5)Temperatura (degC), Punto: (BILLETTA_r-5*FUNZ_depth_billetta, 0.5)Temperatura (degC), Punto: (BILLETTA_r-2*FUNZ_depth_billetta, 0.5)Temperatura (degC), Punto: (BILLETTA_r-FUNZ_depth_billetta, 0.5)Temperatura (degC), Punto: (BILLETTA_r-0.01[mm], 0.5)
0                                                 20                                                20                                                20.000000025024065                                20.06718488359735                                 20.76500336193152                                 21.210244653247116                                21.60710966819397
5                                                 20.171214010552546                                37.677029496426826                                1269.6573085514797                                1362.1071661158985                                1382.9365666360954                                1384.4816745356425                                1383.4187303521662
5.793305751203311                                 20.38432745925485                                 47.03231284911965                                 1310.706731265262                                 1384.1764928931862                                1398.9130259394851                                1399.5494582183192                                1398.1443713945127
