% Model:              batchmodel_BILLETTA_r_0.0542379_COIL_kr_1.9397_COIL_kw_4.5299_FUNZ_freq_6066_FUNZ_I_eff_162.3068.mph
% Version:            COMSOL 5.6.0.401
% Date:               Jan 28 2022, 01:14
% Table:              Tabella delle sonde 1 - 
% Tempo (s)                                       Temperatura (degC), Punto: (0, 0.5)               Temperatura (degC), Punto: (0.5*BILLETTA_r, 0.5)  Temperatura (degC), Punto: (BILLETTA_r-10*FUNZ_depth_billetta, 0.5)Temperatura (degC), Punto: (BILLETTA_r-5*FUNZ_depth_billetta, 0.5)Temperatura (degC), Punto: (BILLETTA_r-2*FUNZ_depth_billetta, 0.5)Temperatura (degC), Punto: (BILLETTA_r-FUNZ_depth_billetta, 0.5)Temperatura (degC), Punto: (BILLETTA_r-0.01[mm], 0.5)
0                                                 20                                                20                                                20.000000025024065                                20.06718484122507                                 20.76500314760699                                 21.210244367522932                                21.60710931827566
5                                                 20.09918708022542                                 36.61042823682919                                 1262.99253555506                                  1355.8472049531056                                1377.3913665563437                                1379.0667182754569                                1378.0606896752238
6.082056561669444                                 20.324894479532134                                49.36818620133141                                 1315.1558311370031                                1382.2592147128112                                1396.7623420670525                                1397.4239952440453                                1396.0376310861466
