% Model:              batchmodel_BILLETTA_r_0.0542379_COIL_kr_2.4069_COIL_kw_5.3284_FUNZ_freq_6066_FUNZ_I_eff_127.5152.mph
% Version:            COMSOL 5.6.0.401
% Date:               Jan 28 2022, 03:22
% Table:              Tabella delle sonde 1 - 
% Tempo (s)                                       Temperatura (degC), Punto: (0, 0.5)               Temperatura (degC), Punto: (0.5*BILLETTA_r, 0.5)  Temperatura (degC), Punto: (BILLETTA_r-10*FUNZ_depth_billetta, 0.5)Temperatura (degC), Punto: (BILLETTA_r-5*FUNZ_depth_billetta, 0.5)Temperatura (degC), Punto: (BILLETTA_r-2*FUNZ_depth_billetta, 0.5)Temperatura (degC), Punto: (BILLETTA_r-FUNZ_depth_billetta, 0.5)Temperatura (degC), Punto: (BILLETTA_r-0.01[mm], 0.5)
0                                                 20                                                20.000000000000057                                20.000000003027196                                20.019820549953863                                20.521325116950266                                20.88851574624141                                 21.221266541205864
5                                                 20.115748952896865                                33.80117789145771                                 1049.7852446051256                                1207.3901237039995                                1245.0430825211288                                1249.071095816937                                 1249.1225980563822
10                                                24.34941005837095                                 101.915496351976                                  1233.7676216059945                                1280.4830702476243                                1290.3122502807382                                1290.5243228095783                                1289.2441697958466
15                                                45.34465867173367                                 189.66830679743697                                1281.4269123555173                                1307.951881993033                                 1312.4529444605778                                1311.8860486043168                                1310.3004877738554
20                                                86.92861332420017                                 274.01289084462303                                1317.0666111530163                                1337.1308828379028                                1339.904398547284                                 1339.0481732032445                                1337.3033537401884
25                                                140.5333431257265                                 350.5866318153237                                 1353.5444700119433                                1370.2151873052921                                1371.974639210628                                 1370.9148718948854                                1369.0252551052567
27.17412969957509                                 165.645242687041                                  381.54030702296564                                1369.4821298213014                                1384.9503427657805                                1386.312564997475                                 1385.1695569332078                                1383.217166850765
