% Model:              batchmodel_BILLETTA_r_0.0542379_COIL_kr_2.7711_COIL_kw_5.8583_FUNZ_freq_6066_FUNZ_I_eff_85.0125.mph
% Version:            COMSOL 5.6.0.401
% Date:               Jan 28 2022, 05:29
% Table:              Tabella delle sonde 1 - 
% Tempo (s)                                       Temperatura (degC), Punto: (0, 0.5)               Temperatura (degC), Punto: (0.5*BILLETTA_r, 0.5)  Temperatura (degC), Punto: (BILLETTA_r-10*FUNZ_depth_billetta, 0.5)Temperatura (degC), Punto: (BILLETTA_r-5*FUNZ_depth_billetta, 0.5)Temperatura (degC), Punto: (BILLETTA_r-2*FUNZ_depth_billetta, 0.5)Temperatura (degC), Punto: (BILLETTA_r-FUNZ_depth_billetta, 0.5)Temperatura (degC), Punto: (BILLETTA_r-0.01[mm], 0.5)
0                                                 20                                                20.000000000000057                                20.000000000164448                                20.000972819734557                                20.260086384123895                                20.520356932259062                                20.771429066695305
5                                                 20.054308100462038                                26.697506129980752                                547.5552498095                                    665.640064860379                                  728.8992832691911                                 741.4536950704714                                 745.9402580640821
10                                                23.217816097961588                                73.44270457649156                                 944.5605125453006                                 1102.6954152138655                                1151.0561964600201                                1156.7826942431411                                1157.5916400725082
15                                                39.24726351057694                                 144.81436523959388                                1075.3163415453814                                1141.685668425464                                 1157.2320857959076                                1158.4968999980688                                1157.8562571225993
20                                                74.15894595103413                                 215.91827943825513                                1103.90073962111                                  1144.4067186687735                                1153.3106552775826                                1153.6576133528565                                1152.725191500037
25                                                118.23526330695455                                280.79559212628635                                1123.9316652878333                                1152.5438507118301                                1158.214833292645                                 1158.0986715504778                                1157.0033169213684
30                                                166.296644171553                                  338.44760099831547                                1138.977681189801                                 1160.9456583762158                                1164.7854595493777                                1164.398382106523                                 1163.1991827857391
35                                                213.8972586913418                                 390.1816537269416                                 1151.2544397399088                                1168.829835708274                                 1171.4458608117807                                1170.872973282661                                 1169.5975506716218
40                                                259.7065521178864                                 437.220304513787                                  1162.548285890241                                 1176.969857581862                                 1178.6923332111555                                1177.978611664817                                 1176.6402386959835
45                                                303.91700292898963                                481.3866195137605                                 1173.875560039567                                 1185.7798824967754                                1186.7758953281514                                1185.9429471249869                                1184.5465739042456
50                                                345.96141279286167                                521.9789927208141                                 1185.4673312593736                                1195.6039020267162                                1196.0690868540933                                1195.1417230987581                                1193.6923957986014
55                                                385.75293290293973                                559.3778867385695                                 1197.3059405222061                                1206.1741749220923                                1206.240913445924                                 1205.2365301699629                                1203.7385588858979
60                                                422.8885221563405                                 593.6038363314158                                 1209.403608731201                                 1217.275718347622                                 1217.0197360442721                                1215.9493383142403                                1214.4067438243846
65                                                457.63360342936676                                624.8304912660533                                 1221.8772872883055                                1229.1024356658181                                1228.6164451134568                                1227.4921580109508                                1225.9078938507942
70                                                490.2224243582158                                 654.1701448947889                                 1235.4706653465537                                1242.0935657898026                                1241.3811356553056                                1240.2002465025212                                1238.5698797226887
75                                                520.5529023735772                                 681.1380718856032                                 1249.859651270519                                 1256.057693183774                                 1255.16124007994                                  1253.9275023330629                                1252.249818933859
80                                                549.0834797993873                                 706.778673230962                                  1265.332412516229                                 1271.1268716146828                                1270.0411180567608                                1268.7506372912594                                1267.021070309083
85                                                575.7057673905819                                 730.8450218274832                                 1281.8208178240247                                1287.2698796892132                                1286.0008244794753                                1284.6515144546906                                1282.8662896651958
90                                                600.5309160166865                                 755.1615275799644                                 1299.1884699734496                                1304.294012649933                                 1302.8321260922094                                1301.4199158563938                                1299.574917509844
95                                                623.6285238772566                                 780.648183532294                                  1317.3791561996777                                1322.1104125714146                                1320.43700282293                                  1318.9565971424122                                1317.0474289182152
100                                               645.0013499718806                                 807.1778567651098                                 1336.0235990635915                                1340.3507002162473                                1338.4514352040765                                1336.8991877150302                                1334.9229205125862
105                                               664.786014546288                                  836.1749431174284                                 1354.1554626898965                                1357.9895704117557                                1355.8431472987909                                1354.2169668837073                                1352.1735684716668
109.64587255160315                                681.6854249767528                                 864.6982207702448                                 1370.9721696833553                                1374.294723074545                                 1371.9026445373347                                1370.2052037662415                                1368.0981154530414
