% Model:              batchmodel_COIL_N_16_COIL_kr_3_COIL_kh_1.5_FUNZ_freq_2000_FUNZ_I_eff_2500.mph
% Version:            COMSOL 6.0.0.318
% Date:               Feb 8 2022, 23:31
% Table:              Tabella 1 - GRIGLIA_T
% COIL_N                 COIL_kr                  COIL_kh                  FUNZ_freq                FUNZ_I_eff               Time (s)                 Temperatura (degC), Point: (0, 0)Temperatura (degC), Point: (15, 0)Temperatura (degC), Point: (25.641, 0)Temperatura (degC), Point: (27.821, 0)Temperatura (degC), Point: (29.128, 0)Temperatura (degC), Point: (29.99, 0)Temperatura (degC), Point: (0, 62.5)Temperatura (degC), Point: (15, 62.5)Temperatura (degC), Point: (25.641, 62.5)Temperatura (degC), Point: (27.821, 62.5)Temperatura (degC), Point: (29.128, 62.5)Temperatura (degC), Point: (29.99, 62.5)Temperatura (degC), Point: (0, 125)Temperatura (degC), Point: (15, 125)Temperatura (degC), Point: (25.641, 125)Temperatura (degC), Point: (27.821, 125)Temperatura (degC), Point: (29.128, 125)Temperatura (degC), Point: (29.99, 125)Temperatura (degC), Point: (0, 187.5)Temperatura (degC), Point: (15, 187.5)Temperatura (degC), Point: (25.641, 187.5)Temperatura (degC), Point: (27.821, 187.5)Temperatura (degC), Point: (29.128, 187.5)Temperatura (degC), Point: (29.99, 187.5)Temperatura (degC), Point: (0, 250)Temperatura (degC), Point: (15, 250)Temperatura (degC), Point: (25.641, 250)Temperatura (degC), Point: (27.821, 250)Temperatura (degC), Point: (29.128, 250)Temperatura (degC), Point: (29.99, 250)Temperatura (degC), Point: (0, 312.5)Temperatura (degC), Point: (15, 312.5)Temperatura (degC), Point: (25.641, 312.5)Temperatura (degC), Point: (27.821, 312.5)Temperatura (degC), Point: (29.128, 312.5)Temperatura (degC), Point: (29.99, 312.5)Temperatura (degC), Point: (0, 375)Temperatura (degC), Point: (15, 375)Temperatura (degC), Point: (25.641, 375)Temperatura (degC), Point: (27.821, 375)Temperatura (degC), Point: (29.128, 375)Temperatura (degC), Point: (29.99, 375)Temperatura (degC), Point: (0, 437.5)Temperatura (degC), Point: (15, 437.5)Temperatura (degC), Point: (25.641, 437.5)Temperatura (degC), Point: (27.821, 437.5)Temperatura (degC), Point: (29.128, 437.5)Temperatura (degC), Point: (29.99, 437.5)Temperatura (degC), Point: (0, 468.75)Temperatura (degC), Point: (15, 468.75)Temperatura (degC), Point: (25.641, 468.75)Temperatura (degC), Point: (27.821, 468.75)Temperatura (degC), Point: (29.128, 468.75)Temperatura (degC), Point: (29.99, 468.75)Temperatura (degC), Point: (0, 492.19)Temperatura (degC), Point: (15, 492.19)Temperatura (degC), Point: (25.641, 492.19)Temperatura (degC), Point: (27.821, 492.19)Temperatura (degC), Point: (29.128, 492.19)Temperatura (degC), Point: (29.99, 492.19)
16.000                   3.0000                   1.5000                   2000.0                   2500.0                   0.0000                   20.000                   20.000                   20.000                   20.000                   20.013                   20.100                   20.000                   20.000                   20.000                   20.000                   20.013                   20.100                   20.000                   20.000                   20.000                   20.000                   20.013                   20.100                   20.000                   20.000                   20.000                   20.000                   20.013                   20.100                   20.000                   20.000                   20.000                   20.000                   20.013                   20.100                   20.000                   20.000                   20.000                   20.000                   20.013                   20.100                   20.000                   20.000                   20.000                   20.000                   20.013                   20.100                   20.000                   20.000                   20.000                   20.000                   20.013                   20.099                   20.000                   20.000                   20.000                   20.000                   20.010                   20.093                   20.000                   20.000                   20.000                   20.000                   20.005                   20.068
16.000                   3.0000                   1.5000                   2000.0                   2500.0                   5.0000                   22.923                   32.626                   70.165                   84.141                   93.707                   97.698                   22.933                   32.679                   70.381                   84.365                   93.939                   97.932                   22.930                   32.660                   70.278                   84.288                   93.877                   97.874                   22.920                   32.611                   70.134                   84.107                   93.690                   97.688                   22.910                   32.573                   70.002                   84.002                   93.604                   97.609                   22.930                   32.685                   70.444                   84.510                   94.141                   98.151                   22.938                   32.717                   70.602                   84.647                   94.261                   98.269                   23.012                   32.948                   70.599                   84.380                   93.763                   97.682                   22.680                   31.489                   65.006                   77.229                   85.550                   89.102                   23.395                   30.219                   52.944                   60.858                   66.235                   68.713
16.000                   3.0000                   1.5000                   2000.0                   2500.0                   10.000                   39.233                   60.870                   114.02                   130.27                   140.85                   145.03                   39.290                   60.996                   114.34                   130.55                   141.11                   145.28                   39.283                   60.969                   114.24                   130.46                   141.03                   145.21                   39.234                   60.881                   114.16                   130.40                   140.97                   145.15                   39.197                   60.823                   114.02                   130.32                   140.94                   145.12                   39.289                   61.005                   114.28                   130.54                   141.16                   145.35                   39.329                   61.062                   114.34                   130.55                   141.13                   145.32                   39.148                   60.482                   112.13                   127.83                   138.05                   142.10                   36.814                   55.419                   100.39                   114.02                   122.94                   126.59                   34.859                   48.890                   80.125                   89.030                   94.748                   97.288
16.000                   3.0000                   1.5000                   2000.0                   2500.0                   15.000                   65.484                   94.311                   155.98                   173.65                   184.97                   189.29                   65.605                   94.518                   156.41                   174.07                   185.39                   189.71                   65.576                   94.438                   156.16                   173.86                   185.19                   189.51                   65.518                   94.397                   156.20                   173.88                   185.21                   189.52                   65.433                   94.255                   155.79                   173.56                   184.91                   189.23                   65.585                   94.458                   156.07                   173.79                   185.15                   189.47                   65.646                   94.505                   156.11                   173.79                   185.13                   189.44                   64.506                   92.350                   151.30                   168.26                   179.09                   183.27                   58.787                   82.799                   133.57                   148.23                   157.68                   161.43                   52.983                   71.208                   106.29                   115.64                   121.52                   124.09
16.000                   3.0000                   1.5000                   2000.0                   2500.0                   20.000                   98.388                   130.64                   197.10                   216.02                   228.09                   232.54                   98.539                   130.82                   197.42                   216.32                   228.38                   232.82                   98.485                   130.72                   197.34                   216.29                   228.34                   232.78                   98.431                   130.68                   197.05                   216.02                   228.09                   232.53                   98.283                   130.44                   196.60                   215.57                   227.65                   232.09                   98.473                   130.67                   196.99                   215.93                   228.01                   232.46                   98.519                   130.65                   196.82                   215.76                   227.83                   232.28                   95.744                   126.44                   189.45                   207.50                   218.99                   223.28                   85.692                   111.87                   165.38                   180.84                   190.76                   194.59                   75.766                   95.714                   132.37                   142.00                   148.07                   150.66
16.000                   3.0000                   1.5000                   2000.0                   2500.0                   25.000                   133.93                   168.24                   239.25                   259.61                   272.45                   277.04                   134.05                   168.28                   238.98                   259.26                   272.12                   276.71                   133.99                   168.24                   239.24                   259.55                   272.37                   276.95                   133.92                   168.09                   238.57                   258.91                   271.77                   276.36                   133.74                   167.92                   238.74                   259.07                   271.91                   276.50                   133.96                   168.16                   238.91                   259.20                   272.06                   276.65                   133.94                   168.02                   238.48                   258.68                   271.53                   276.11                   129.05                   161.39                   228.15                   247.31                   259.51                   263.95                   114.34                   141.64                   197.65                   213.82                   224.17                   228.08                   100.75                   121.44                   159.25                   169.23                   175.57                   178.15
16.000                   3.0000                   1.5000                   2000.0                   2500.0                   30.000                   170.63                   206.90                   283.24                   305.17                   318.79                   323.51                   170.58                   206.43                   281.43                   303.19                   316.88                   321.61                   170.59                   206.66                   283.01                   304.74                   318.36                   323.07                   170.44                   206.28                   281.42                   303.23                   316.93                   321.65                   170.30                   206.32                   282.60                   304.66                   318.53                   323.27                   170.54                   206.49                   281.95                   303.76                   317.47                   322.20                   170.39                   206.14                   281.27                   302.86                   316.50                   321.22                   163.04                   196.87                   267.76                   287.96                   300.75                   305.32                   143.62                   171.94                   230.89                   247.80                   258.62                   262.61                   126.73                   147.92                   186.77                   197.04                   203.54                   206.09
16.000                   3.0000                   1.5000                   2000.0                   2500.0                   35.000                   207.59                   245.97                   327.78                   351.39                   365.86                   370.70                   207.27                   244.94                   324.70                   348.07                   362.63                   367.49                   207.42                   245.49                   327.42                   350.73                   365.22                   370.06                   207.16                   244.89                   325.12                   348.54                   363.14                   367.99                   207.11                   245.15                   326.92                   350.84                   365.75                   370.65                   207.36                   245.25                   325.68                   349.14                   363.76                   368.61                   207.01                   244.62                   324.68                   347.89                   362.39                   367.23                   197.05                   232.53                   307.71                   329.11                   342.51                   347.19                   173.03                   202.56                   264.61                   282.37                   293.70                   297.78                   153.02                   174.74                   214.78                   225.34                   231.99                   234.53
16.000                   3.0000                   1.5000                   2000.0                   2500.0                   40.000                   244.49                   284.95                   371.51                   396.87                   412.35                   417.33                   243.95                   283.73                   368.69                   393.86                   409.38                   414.37                   244.23                   284.41                   370.93                   396.11                   411.59                   416.57                   243.87                   283.74                   369.07                   394.29                   409.83                   414.83                   243.92                   284.09                   370.59                   396.13                   411.87                   416.88                   244.19                   284.21                   369.76                   395.02                   410.58                   415.57                   243.60                   283.32                   368.35                   393.39                   408.84                   413.82                   230.93                   268.19                   347.42                   370.41                   384.68                   389.45                   202.54                   233.35                   298.22                   316.99                   328.89                   333.05                   179.47                   201.76                   243.29                   254.29                   261.20                   263.84
16.000                   3.0000                   1.5000                   2000.0                   2500.0                   45.000                   280.87                   323.28                   414.05                   440.98                   457.44                   462.56                   280.05                   321.89                   411.81                   438.68                   455.07                   460.16                   280.53                   322.76                   413.45                   440.47                   456.96                   462.07                   280.07                   322.05                   412.29                   439.23                   455.64                   460.73                   280.23                   322.45                   413.07                   439.96                   456.38                   461.50                   280.32                   322.34                   412.50                   439.36                   455.72                   460.80                   279.59                   321.36                   411.05                   437.85                   454.18                   459.25                   264.50                   303.60                   386.89                   411.57                   426.77                   431.60                   232.08                   264.18                   331.80                   351.63                   364.08                   368.32                   206.17                   229.08                   272.14                   283.59                   290.77                   293.52
16.000                   3.0000                   1.5000                   2000.0                   2500.0                   50.000                   316.44                   360.60                   455.43                   483.57                   500.82                   506.07                   315.24                   358.78                   452.80                   481.01                   498.06                   503.20                   315.99                   360.06                   455.16                   483.68                   501.06                   506.27                   315.43                   359.24                   453.97                   482.32                   499.43                   504.57                   315.72                   359.72                   454.27                   482.27                   499.36                   504.59                   315.30                   358.90                   452.77                   480.76                   497.66                   502.77                   314.64                   358.13                   451.91                   480.10                   497.10                   502.21                   297.70                   338.55                   426.14                   452.26                   468.22                   473.12                   261.52                   294.86                   365.32                   386.08                   399.04                   403.32                   233.00                   256.56                   300.91                   312.68                   320.04                   322.81
16.000                   3.0000                   1.5000                   2000.0                   2500.0                   55.000                   352.02                   397.93                   496.80                   526.16                   544.19                   549.59                   350.43                   395.67                   493.78                   523.33                   541.06                   546.23                   351.45                   397.36                   496.87                   526.89                   545.16                   550.48                   350.78                   396.43                   495.65                   525.41                   543.21                   548.40                   351.20                   396.98                   495.48                   524.58                   542.34                   547.68                   350.27                   395.46                   493.04                   522.17                   539.61                   544.74                   349.69                   394.89                   492.78                   522.35                   540.02                   545.17                   330.89                   373.50                   465.39                   492.96                   509.68                   514.64                   290.95                   325.53                   398.83                   420.53                   434.00                   438.32                   259.83                   284.04                   329.68                   341.77                   349.32                   352.10
16.000                   3.0000                   1.5000                   2000.0                   2500.0                   60.000                   387.59                   435.26                   538.18                   568.75                   587.56                   593.10                   385.62                   432.56                   534.77                   565.66                   584.05                   589.27                   386.91                   434.66                   538.57                   570.10                   589.26                   594.68                   386.13                   433.63                   537.34                   568.50                   587.00                   592.24                   386.68                   434.25                   536.68                   566.89                   585.32                   590.78                   385.25                   432.02                   533.31                   563.58                   581.56                   586.71                   384.74                   431.66                   533.64                   564.60                   582.95                   588.13                   364.09                   408.46                   504.64                   533.65                   551.13                   556.16                   320.38                   356.20                   432.34                   454.98                   468.95                   473.32                   286.66                   311.52                   358.45                   370.86                   378.59                   381.39
16.000                   3.0000                   1.5000                   2000.0                   2500.0                   65.000                   423.16                   472.59                   579.56                   611.35                   630.94                   636.61                   420.81                   469.45                   575.76                   607.98                   627.04                   632.31                   422.36                   471.96                   580.28                   613.32                   633.37                   638.89                   421.48                   470.82                   579.02                   611.59                   630.79                   636.07                   422.17                   471.52                   577.88                   609.20                   628.31                   633.87                   420.22                   468.58                   573.58                   604.99                   623.50                   628.68                   419.79                   468.43                   574.50                   606.85                   625.87                   631.09                   397.28                   443.41                   543.88                   574.34                   592.59                   597.68                   349.82                   386.88                   465.85                   489.43                   503.91                   508.32                   313.49                   339.00                   387.22                   399.95                   407.86                   410.68
16.000                   3.0000                   1.5000                   2000.0                   2500.0                   70.000                   454.59                   504.39                   610.83                   641.77                   661.36                   667.00                   452.08                   501.25                   607.89                   639.77                   658.89                   664.12                   453.68                   503.74                   612.05                   644.44                   664.55                   670.05                   452.69                   502.46                   610.48                   642.53                   661.85                   667.09                   453.56                   503.36                   609.62                   640.22                   659.26                   664.78                   451.20                   499.96                   604.98                   635.82                   654.13                   659.21                   451.03                   500.29                   607.27                   639.71                   659.02                   664.22                   427.71                   475.00                   578.07                   609.42                   628.00                   633.00                   377.77                   415.91                   497.51                   521.90                   536.82                   541.22                   339.55                   365.69                   415.09                   428.13                   436.18                   438.97
16.000                   3.0000                   1.5000                   2000.0                   2500.0                   75.000                   485.45                   535.43                   640.71                   670.49                   689.99                   695.58                   482.82                   532.34                   638.79                   670.08                   689.20                   694.38                   484.42                   534.75                   642.44                   673.89                   693.95                   699.40                   483.33                   533.34                   640.51                   671.80                   691.15                   696.32                   484.38                   534.44                   640.05                   669.68                   688.54                   694.00                   481.62                   530.63                   635.14                   665.19                   683.18                   688.15                   481.74                   531.47                   638.91                   671.26                   690.81                   695.99                   457.75                   506.11                   611.56                   643.73                   662.57                   667.46                   405.52                   444.72                   528.90                   554.09                   569.44                   573.84                   365.51                   392.27                   442.84                   456.19                   464.38                   467.13