% Model:              batchmodel_COIL_N_16_COIL_kr_1.5_COIL_kh_1.5_FUNZ_freq_10000_FUNZ_I_eff_4000.mph
% Version:            COMSOL 6.0.0.318
% Date:               Feb 8 2022, 21:42
% Table:              Tabella 1 - GRIGLIA_T
% COIL_N                 COIL_kr                  COIL_kh                  FUNZ_freq                FUNZ_I_eff               Time (s)                 Temperatura (degC), Point: (0, 0)Temperatura (degC), Point: (15, 0)Temperatura (degC), Point: (28.051, 0)Temperatura (degC), Point: (29.025, 0)Temperatura (degC), Point: (29.61, 0)Temperatura (degC), Point: (29.99, 0)Temperatura (degC), Point: (0, 62.5)Temperatura (degC), Point: (15, 62.5)Temperatura (degC), Point: (28.051, 62.5)Temperatura (degC), Point: (29.025, 62.5)Temperatura (degC), Point: (29.61, 62.5)Temperatura (degC), Point: (29.99, 62.5)Temperatura (degC), Point: (0, 125)Temperatura (degC), Point: (15, 125)Temperatura (degC), Point: (28.051, 125)Temperatura (degC), Point: (29.025, 125)Temperatura (degC), Point: (29.61, 125)Temperatura (degC), Point: (29.99, 125)Temperatura (degC), Point: (0, 187.5)Temperatura (degC), Point: (15, 187.5)Temperatura (degC), Point: (28.051, 187.5)Temperatura (degC), Point: (29.025, 187.5)Temperatura (degC), Point: (29.61, 187.5)Temperatura (degC), Point: (29.99, 187.5)Temperatura (degC), Point: (0, 250)Temperatura (degC), Point: (15, 250)Temperatura (degC), Point: (28.051, 250)Temperatura (degC), Point: (29.025, 250)Temperatura (degC), Point: (29.61, 250)Temperatura (degC), Point: (29.99, 250)Temperatura (degC), Point: (0, 312.5)Temperatura (degC), Point: (15, 312.5)Temperatura (degC), Point: (28.051, 312.5)Temperatura (degC), Point: (29.025, 312.5)Temperatura (degC), Point: (29.61, 312.5)Temperatura (degC), Point: (29.99, 312.5)Temperatura (degC), Point: (0, 375)Temperatura (degC), Point: (15, 375)Temperatura (degC), Point: (28.051, 375)Temperatura (degC), Point: (29.025, 375)Temperatura (degC), Point: (29.61, 375)Temperatura (degC), Point: (29.99, 375)Temperatura (degC), Point: (0, 437.5)Temperatura (degC), Point: (15, 437.5)Temperatura (degC), Point: (28.051, 437.5)Temperatura (degC), Point: (29.025, 437.5)Temperatura (degC), Point: (29.61, 437.5)Temperatura (degC), Point: (29.99, 437.5)Temperatura (degC), Point: (0, 468.75)Temperatura (degC), Point: (15, 468.75)Temperatura (degC), Point: (28.051, 468.75)Temperatura (degC), Point: (29.025, 468.75)Temperatura (degC), Point: (29.61, 468.75)Temperatura (degC), Point: (29.99, 468.75)Temperatura (degC), Point: (0, 492.19)Temperatura (degC), Point: (15, 492.19)Temperatura (degC), Point: (28.051, 492.19)Temperatura (degC), Point: (29.025, 492.19)Temperatura (degC), Point: (29.61, 492.19)Temperatura (degC), Point: (29.99, 492.19)
16.000                   1.5000                   1.5000                   10000                    4000.0                   0.0000                   20.000                   20.000                   20.000                   20.000                   20.155                   20.641                   20.000                   20.000                   20.000                   20.000                   20.157                   20.645                   20.000                   20.000                   20.000                   20.000                   20.162                   20.657                   20.000                   20.000                   20.000                   20.000                   20.170                   20.675                   20.000                   20.000                   20.000                   20.000                   20.182                   20.701                   20.000                   20.000                   20.000                   20.000                   20.195                   20.734                   20.000                   20.000                   20.000                   20.000                   20.212                   20.771                   20.000                   20.000                   20.000                   20.000                   20.230                   20.809                   20.000                   20.000                   20.000                   20.000                   20.238                   20.827                   20.000                   20.000                   20.000                   20.001                   20.300                   20.958
16.000                   1.5000                   1.5000                   10000                    4000.0                   5.0000                   34.665                   88.005                   433.94                   494.76                   529.87                   539.89                   34.448                   87.615                   432.76                   493.80                   528.87                   538.88                   34.588                   88.372                   436.41                   496.75                   531.76                   541.98                   34.816                   89.518                   446.80                   510.71                   547.00                   557.23                   34.990                   90.627                   456.68                   522.21                   558.88                   569.38                   35.353                   92.446                   469.70                   537.71                   575.73                   586.51                   35.660                   94.113                   481.03                   550.90                   590.05                   601.15                   35.954                   95.830                   499.04                   573.41                   614.13                   625.44                   36.300                   97.182                   507.12                   583.10                   624.38                   635.72                   45.355                   117.41                   553.63                   632.19                   675.66                   687.58
16.000                   1.5000                   1.5000                   10000                    4000.0                   10.000                   124.09                   244.45                   713.31                   784.08                   822.61                   832.38                   123.44                   243.71                   713.56                   784.87                   823.69                   833.53                   124.02                   244.99                   718.51                   791.16                   830.44                   840.32                   124.75                   246.54                   725.77                   800.76                   840.75                   850.74                   125.55                   248.69                   736.16                   814.05                   854.72                   864.77                   126.69                   251.25                   748.31                   829.26                   870.56                   880.66                   127.66                   253.55                   761.42                   845.43                   887.32                   897.47                   128.98                   256.88                   778.12                   864.13                   906.07                   916.04                   130.43                   259.06                   786.69                   871.69                   912.44                   922.00                   150.83                   289.35                   820.81                   898.12                   934.30                   942.87
16.000                   1.5000                   1.5000                   10000                    4000.0                   15.000                   248.32                   381.27                   833.94                   900.61                   933.11                   940.67                   247.62                   380.78                   835.95                   903.12                   935.77                   943.36                   248.42                   382.17                   839.72                   906.98                   939.55                   947.09                   249.36                   383.97                   845.92                   913.32                   945.73                   953.21                   250.69                   386.69                   852.55                   919.46                   951.44                   958.78                   252.29                   389.94                   859.75                   925.49                   956.73                   963.86                   253.73                   393.44                   869.58                   933.62                   963.77                   970.59                   255.91                   398.36                   886.14                   947.64                   975.92                   982.19                   258.35                   403.54                   912.25                   970.28                   995.15                   1000.3                   281.28                   435.14                   987.11                   1036.8                   1053.5                   1055.7
16.000                   1.5000                   1.5000                   10000                    4000.0                   20.000                   358.40                   485.69                   899.14                   950.29                   974.83                   980.33                   357.85                   485.54                   900.72                   951.84                   976.33                   981.80                   358.84                   487.22                   902.78                   953.23                   977.37                   982.76                   360.11                   489.61                   906.56                   955.68                   979.13                   984.34                   362.01                   493.30                   913.77                   960.87                   983.14                   988.04                   364.22                   497.81                   930.61                   975.85                   996.43                   1000.8                   366.38                   503.05                   964.60                   1010.1                   1028.3                   1031.5                   369.37                   509.67                   1015.6                   1059.7                   1073.9                   1075.6                   372.73                   516.87                   1050.3                   1089.1                   1100.2                   1100.9                   396.04                   548.05                   1106.9                   1133.9                   1140.1                   1139.5
16.000                   1.5000                   1.5000                   10000                    4000.0                   25.000                   450.33                   568.02                   925.89                   962.59                   980.50                   984.44                   449.97                   568.18                   927.71                   964.09                   981.80                   985.68                   451.15                   570.40                   932.87                   968.19                   985.19                   988.87                   452.75                   573.67                   945.55                   979.38                   995.16                   998.47                   455.14                   578.58                   971.77                   1005.6                   1019.8                   1022.4                   457.90                   584.46                   1015.4                   1049.6                   1060.9                   1062.2                   460.68                   591.17                   1064.2                   1094.5                   1102.5                   1102.6                   464.23                   598.86                   1103.0                   1127.6                   1133.2                   1132.6                   468.00                   606.22                   1120.4                   1141.9                   1146.4                   1145.5                   491.82                   639.61                   1168.5                   1182.2                   1184.2                   1182.6
16.000                   1.5000                   1.5000                   10000                    4000.0                   30.000                   525.40                   632.54                   946.88                   973.20                   985.94                   988.60                   525.21                   632.98                   951.15                   977.19                   989.64                   992.20                   526.56                   635.78                   965.34                   990.91                   1002.6                   1004.8                   528.45                   639.91                   993.58                   1019.9                   1030.2                   1031.7                   531.20                   645.83                   1034.0                   1060.5                   1068.7                   1069.2                   534.36                   652.70                   1075.8                   1098.7                   1104.4                   1104.0                   537.60                   660.30                   1108.6                   1127.0                   1130.9                   1129.9                   541.47                   668.41                   1130.8                   1146.2                   1149.0                   1147.7                   545.34                   675.39                   1140.7                   1154.7                   1156.9                   1155.5                   571.12                   717.09                   1205.9                   1215.0                   1215.5                   1213.5
16.000                   1.5000                   1.5000                   10000                    4000.0                   35.000                   587.58                   684.94                   977.66                   996.80                   1005.3                   1006.7                   587.50                   685.61                   984.90                   1004.3                   1012.6                   1013.9                   588.92                   688.85                   1006.4                   1026.8                   1034.4                   1035.2                   590.96                   693.56                   1039.8                   1060.4                   1066.7                   1066.7                   593.85                   700.14                   1074.9                   1093.3                   1097.7                   1097.1                   597.17                   707.66                   1103.8                   1119.0                   1122.0                   1120.9                   600.59                   715.80                   1125.6                   1138.1                   1140.1                   1138.7                   604.52                   724.32                   1141.7                   1152.5                   1153.8                   1152.3                   608.35                   731.36                   1149.4                   1159.3                   1160.4                   1158.7                   636.36                   791.59                   1236.0                   1242.7                   1242.5                   1240.3
16.000                   1.5000                   1.5000                   10000                    4000.0                   40.000                   639.22                   729.46                   1021.8                   1036.7                   1041.7                   1041.8                   639.23                   730.41                   1028.8                   1044.1                   1049.0                   1048.9                   640.64                   734.00                   1047.8                   1063.4                   1067.7                   1067.3                   642.67                   739.33                   1072.6                   1087.0                   1090.2                   1089.4                   645.53                   746.73                   1096.4                   1108.7                   1110.9                   1109.7                   648.81                   755.32                   1116.7                   1127.0                   1128.4                   1127.0                   652.19                   764.58                   1133.5                   1142.4                   1143.2                   1141.6                   655.98                   774.62                   1147.5                   1155.4                   1155.9                   1154.1                   659.78                   782.90                   1155.3                   1162.6                   1162.9                   1161.1                   688.96                   871.15                   1265.0                   1270.2                   1269.4                   1267.0
16.000                   1.5000                   1.5000                   10000                    4000.0                   45.000                   681.20                   772.80                   1065.1                   1076.4                   1078.8                   1077.8                   681.27                   773.77                   1069.0                   1080.1                   1082.3                   1081.3                   682.56                   777.98                   1079.8                   1090.2                   1092.0                   1090.9                   684.44                   784.26                   1094.4                   1103.7                   1105.1                   1103.7                   687.06                   792.91                   1110.1                   1118.3                   1119.1                   1117.6                   690.05                   802.89                   1125.6                   1132.7                   1133.1                   1131.5                   693.16                   813.61                   1140.0                   1146.4                   1146.5                   1144.7                   696.57                   825.04                   1153.4                   1159.2                   1159.0                   1157.2                   700.26                   835.62                   1162.4                   1167.9                   1167.6                   1165.6                   730.24                   948.58                   1294.3                   1298.4                   1297.2                   1294.6
16.000                   1.5000                   1.5000                   10000                    4000.0                   50.000                   713.52                   820.48                   1093.6                   1100.8                   1101.5                   1100.0                   713.52                   821.35                   1095.7                   1102.8                   1103.4                   1101.9                   714.65                   825.91                   1102.2                   1108.9                   1109.3                   1107.7                   716.32                   832.62                   1111.9                   1118.0                   1118.1                   1116.5                   718.66                   841.81                   1123.6                   1129.1                   1129.0                   1127.3                   721.38                   852.23                   1136.4                   1141.5                   1141.1                   1139.3                   724.25                   863.30                   1149.5                   1154.1                   1153.6                   1151.7                   727.45                   874.96                   1162.4                   1166.7                   1166.1                   1164.1                   731.74                   888.50                   1173.6                   1177.6                   1176.8                   1174.8                   777.86                   1019.2                   1324.8                   1328.0                   1326.4                   1323.6
