% Model:              batchmodel_COIL_N_16_COIL_kr_2.25_COIL_kh_1.5_FUNZ_freq_6000_FUNZ_I_eff_1000.mph
% Version:            COMSOL 6.0.0.318
% Date:               Feb 8 2022, 22:23
% Table:              Tabella 1 - GRIGLIA_T
% COIL_N                 COIL_kr                  COIL_kh                  FUNZ_freq                FUNZ_I_eff               Time (s)                 Temperatura (degC), Point: (0, 0)Temperatura (degC), Point: (15, 0)Temperatura (degC), Point: (27.483, 0)Temperatura (degC), Point: (28.742, 0)Temperatura (degC), Point: (29.497, 0)Temperatura (degC), Point: (29.99, 0)Temperatura (degC), Point: (0, 62.5)Temperatura (degC), Point: (15, 62.5)Temperatura (degC), Point: (27.483, 62.5)Temperatura (degC), Point: (28.742, 62.5)Temperatura (degC), Point: (29.497, 62.5)Temperatura (degC), Point: (29.99, 62.5)Temperatura (degC), Point: (0, 125)Temperatura (degC), Point: (15, 125)Temperatura (degC), Point: (27.483, 125)Temperatura (degC), Point: (28.742, 125)Temperatura (degC), Point: (29.497, 125)Temperatura (degC), Point: (29.99, 125)Temperatura (degC), Point: (0, 187.5)Temperatura (degC), Point: (15, 187.5)Temperatura (degC), Point: (27.483, 187.5)Temperatura (degC), Point: (28.742, 187.5)Temperatura (degC), Point: (29.497, 187.5)Temperatura (degC), Point: (29.99, 187.5)Temperatura (degC), Point: (0, 250)Temperatura (degC), Point: (15, 250)Temperatura (degC), Point: (27.483, 250)Temperatura (degC), Point: (28.742, 250)Temperatura (degC), Point: (29.497, 250)Temperatura (degC), Point: (29.99, 250)Temperatura (degC), Point: (0, 312.5)Temperatura (degC), Point: (15, 312.5)Temperatura (degC), Point: (27.483, 312.5)Temperatura (degC), Point: (28.742, 312.5)Temperatura (degC), Point: (29.497, 312.5)Temperatura (degC), Point: (29.99, 312.5)Temperatura (degC), Point: (0, 375)Temperatura (degC), Point: (15, 375)Temperatura (degC), Point: (27.483, 375)Temperatura (degC), Point: (28.742, 375)Temperatura (degC), Point: (29.497, 375)Temperatura (degC), Point: (29.99, 375)Temperatura (degC), Point: (0, 437.5)Temperatura (degC), Point: (15, 437.5)Temperatura (degC), Point: (27.483, 437.5)Temperatura (degC), Point: (28.742, 437.5)Temperatura (degC), Point: (29.497, 437.5)Temperatura (degC), Point: (29.99, 437.5)Temperatura (degC), Point: (0, 468.75)Temperatura (degC), Point: (15, 468.75)Temperatura (degC), Point: (27.483, 468.75)Temperatura (degC), Point: (28.742, 468.75)Temperatura (degC), Point: (29.497, 468.75)Temperatura (degC), Point: (29.99, 468.75)Temperatura (degC), Point: (0, 492.19)Temperatura (degC), Point: (15, 492.19)Temperatura (degC), Point: (27.483, 492.19)Temperatura (degC), Point: (28.742, 492.19)Temperatura (degC), Point: (29.497, 492.19)Temperatura (degC), Point: (29.99, 492.19)
16.000                   2.2500                   1.5000                   6000.0                   1000.0                   0.0000                   20.000                   20.000                   20.000                   20.000                   20.003                   20.092                   20.000                   20.000                   20.000                   20.000                   20.003                   20.092                   20.000                   20.000                   20.000                   20.000                   20.003                   20.092                   20.000                   20.000                   20.000                   20.000                   20.003                   20.092                   20.000                   20.000                   20.000                   20.000                   20.003                   20.092                   20.000                   20.000                   20.000                   20.000                   20.003                   20.093                   20.000                   20.000                   20.000                   20.000                   20.003                   20.093                   20.000                   20.000                   20.000                   20.000                   20.003                   20.093                   20.000                   20.000                   20.000                   20.000                   20.003                   20.091                   20.000                   20.000                   20.000                   20.000                   20.001                   20.072
16.000                   2.2500                   1.5000                   6000.0                   1000.0                   5.0000                   22.164                   27.056                   54.087                   59.474                   62.131                   63.351                   22.165                   27.047                   53.985                   59.125                   61.809                   62.950                   22.179                   27.103                   54.356                   59.756                   62.878                   64.272                   22.139                   26.983                   54.117                   59.516                   62.444                   63.869                   22.158                   27.040                   54.316                   59.648                   62.295                   63.513                   22.144                   26.970                   53.995                   59.256                   61.903                   63.141                   22.156                   26.970                   53.314                   58.365                   61.081                   62.363                   22.136                   26.958                   53.572                   58.722                   61.378                   62.597                   21.966                   26.413                   50.955                   55.721                   58.137                   59.194                   21.872                   25.613                   41.846                   44.451                   46.061                   46.884
16.000                   2.2500                   1.5000                   6000.0                   1000.0                   10.000                   31.192                   43.483                   85.296                   92.009                   95.108                   96.404                   31.220                   43.502                   85.088                   91.416                   94.511                   95.728                   31.235                   43.502                   84.767                   91.281                   94.919                   96.478                   31.045                   43.188                   85.336                   92.309                   95.820                   97.403                   31.158                   43.342                   84.821                   91.193                   94.007                   95.332                   31.105                   43.182                   84.330                   90.725                   93.721                   95.090                   31.222                   43.344                   83.485                   89.631                   92.746                   94.210                   30.909                   42.644                   81.052                   86.784                   89.543                   90.765                   30.001                   40.781                   76.833                   82.430                   85.120                   86.111                   29.068                   37.934                   61.545                   64.291                   65.887                   66.660
16.000                   2.2500                   1.5000                   6000.0                   1000.0                   15.000                   46.231                   61.014                   97.121                   101.64                   104.27                   105.45                   46.355                   61.171                   97.477                   102.03                   104.71                   105.90                   46.278                   60.998                   96.711                   101.07                   103.61                   104.80                   45.885                   60.465                   96.010                   100.40                   102.93                   104.10                   46.207                   60.896                   96.770                   101.31                   104.02                   105.23                   46.139                   60.769                   96.690                   101.21                   103.83                   105.05                   46.451                   61.185                   96.994                   101.49                   104.11                   105.33                   45.496                   59.715                   94.806                   99.332                   102.01                   103.26                   43.305                   56.339                   89.202                   93.556                   96.152                   97.401                   40.652                   51.153                   74.961                   77.900                   79.701                   80.610
16.000                   2.2500                   1.5000                   6000.0                   1000.0                   20.000                   62.519                   77.437                   111.77                   116.21                   118.94                   120.23                   62.786                   77.784                   112.28                   116.72                   119.45                   120.74                   62.538                   77.377                   111.46                   115.88                   118.61                   119.89                   61.906                   76.538                   110.19                   114.58                   117.29                   118.58                   62.527                   77.374                   111.53                   115.94                   118.67                   119.96                   62.547                   77.442                   111.84                   116.31                   119.06                   120.37                   62.927                   77.831                   112.11                   116.57                   119.33                   120.64                   61.394                   75.975                   109.97                   114.42                   117.17                   118.47                   57.827                   71.230                   103.03                   107.24                   109.83                   111.06                   53.489                   64.296                   87.847                   90.765                   92.559                   93.457
16.000                   2.2500                   1.5000                   6000.0                   1000.0                   25.000                   80.094                   96.276                   137.59                   143.62                   146.87                   148.41                   80.501                   96.782                   138.23                   144.08                   147.25                   148.72                   79.872                   95.731                   135.66                   141.49                   144.80                   146.17                   78.972                   94.570                   133.92                   139.58                   142.65                   144.02                   80.000                   95.949                   136.24                   141.83                   144.66                   146.01                   80.191                   96.227                   137.02                   142.97                   146.22                   147.69                   80.494                   96.474                   136.36                   141.93                   145.06                   146.51                   78.235                   93.712                   132.18                   137.59                   140.54                   141.88                   73.181                   87.364                   123.22                   128.35                   131.10                   132.29                   67.635                   79.261                   104.81                   107.84                   109.64                   110.52
16.000                   2.2500                   1.5000                   6000.0                   1000.0                   30.000                   98.811                   116.61                   163.42                   170.16                   173.63                   175.25                   99.410                   117.46                   165.42                   172.31                   175.87                   177.47                   98.050                   115.06                   158.01                   163.89                   166.94                   168.17                   96.881                   113.63                   156.65                   162.73                   165.85                   167.23                   98.436                   115.72                   160.41                   166.62                   169.51                   170.83                   98.852                   116.29                   161.97                   168.62                   172.16                   173.70                   99.025                   116.39                   160.74                   166.89                   170.15                   171.64                   95.794                   112.32                   154.18                   159.99                   163.03                   164.39                   89.169                   104.21                   142.99                   148.59                   151.50                   152.71                   82.623                   95.127                   122.28                   125.36                   127.15                   128.02
16.000                   2.2500                   1.5000                   6000.0                   1000.0                   35.000                   119.23                   138.59                   189.25                   196.39                   199.91                   201.53                   120.05                   139.79                   192.57                   200.16                   204.00                   205.66                   117.49                   135.64                   181.13                   187.08                   189.96                   191.12                   115.95                   133.79                   179.38                   185.69                   188.86                   190.28                   118.25                   136.77                   184.41                   190.94                   193.91                   195.23                   119.02                   137.83                   187.16                   194.25                   197.98                   199.56                   118.82                   137.38                   184.50                   190.93                   194.26                   195.76                   114.41                   131.97                   176.41                   182.47                   185.64                   187.04                   106.14                   122.02                   163.07                   168.98                   172.04                   173.28                   98.634                   111.80                   140.15                   143.31                   145.16                   146.03
16.000                   2.2500                   1.5000                   6000.0                   1000.0                   40.000                   139.78                   160.66                   214.99                   222.52                   226.08                   227.68                   140.82                   162.23                   219.60                   227.84                   231.95                   233.68                   137.03                   156.32                   204.32                   210.35                   213.09                   214.18                   135.12                   154.01                   202.06                   208.58                   211.80                   213.27                   138.17                   157.91                   208.37                   215.20                   218.25                   219.57                   139.32                   159.48                   212.33                   219.83                   223.75                   225.37                   138.71                   158.44                   208.17                   214.86                   218.26                   219.77                   133.12                   151.70                   198.65                   204.96                   208.25                   209.70                   123.20                   139.91                   183.17                   189.39                   192.58                   193.85                   114.75                   128.56                   158.06                   161.31                   163.21                   164.10
16.000                   2.2500                   1.5000                   6000.0                   1000.0                   45.000                   160.58                   182.09                   237.51                   245.10                   248.71                   250.29                   161.97                   184.11                   242.86                   251.18                   255.36                   257.06                   157.16                   177.09                   226.45                   232.56                   235.27                   236.35                   154.38                   173.69                   222.35                   228.89                   232.11                   233.56                   158.58                   178.96                   230.75                   237.77                   240.88                   242.19                   160.28                   181.22                   235.77                   243.41                   247.40                   249.02                   159.06                   179.40                   230.38                   237.25                   240.74                   242.25                   152.58                   171.89                   220.46                   226.92                   230.31                   231.79                   141.14                   158.38                   202.75                   209.05                   212.28                   213.55                   131.81                   146.04                   176.37                   179.72                   181.69                   182.58
16.000                   2.2500                   1.5000                   6000.0                   1000.0                   50.000                   181.37                   203.52                   260.02                   267.69                   271.34                   272.90                   183.11                   206.00                   266.12                   274.51                   278.76                   280.44                   177.28                   197.86                   248.59                   254.77                   257.46                   258.53                   173.65                   193.37                   242.65                   249.21                   252.42                   253.86                   178.99                   200.02                   253.13                   260.34                   263.51                   264.81                   181.24                   202.96                   259.22                   266.99                   271.05                   272.67                   179.41                   200.36                   252.58                   259.64                   263.21                   264.73                   172.05                   192.07                   242.27                   248.89                   252.37                   253.88                   159.08                   176.85                   222.32                   228.72                   231.98                   233.25                   148.88                   163.52                   194.68                   198.14                   200.17                   201.07
16.000                   2.2500                   1.5000                   6000.0                   1000.0                   55.000                   202.17                   224.95                   282.53                   290.28                   293.96                   295.50                   204.26                   227.88                   289.39                   297.85                   302.16                   303.82                   197.41                   218.63                   270.72                   276.99                   279.64                   280.70                   192.91                   213.04                   262.94                   269.52                   272.72                   274.16                   199.40                   221.08                   275.51                   282.90                   286.15                   287.43                   202.20                   224.71                   282.66                   290.57                   294.70                   296.32                   199.76                   221.32                   274.78                   282.04                   285.68                   287.21                   191.51                   212.26                   264.08                   270.86                   274.43                   275.97                   177.02                   195.32                   241.90                   248.38                   251.68                   252.95                   165.94                   181.01                   213.00                   216.55                   218.64                   219.56
16.000                   2.2500                   1.5000                   6000.0                   1000.0                   60.000                   222.90                   246.25                   304.86                   312.68                   316.41                   317.94                   225.33                   249.60                   312.30                   320.82                   325.19                   326.83                   217.50                   239.31                   292.69                   299.06                   301.71                   302.76                   212.18                   232.70                   283.20                   289.80                   293.00                   294.42                   219.85                   242.16                   297.99                   305.58                   308.91                   310.18                   223.18                   246.40                   305.90                   313.93                   318.12                   319.74                   220.09                   242.19                   296.79                   304.24                   307.97                   309.51                   210.95                   232.34                   285.60                   292.50                   296.15                   297.71                   194.98                   213.77                   261.30                   267.85                   271.19                   272.45                   183.06                   198.50                   231.20                   234.85                   237.00                   237.93
16.000                   2.2500                   1.5000                   6000.0                   1000.0                   65.000                   243.44                   267.12                   326.57                   334.46                   338.26                   339.78                   246.15                   270.77                   334.04                   342.57                   347.00                   348.60                   237.49                   259.68                   314.13                   320.65                   323.36                   324.43                   231.46                   252.27                   303.35                   309.95                   313.18                   314.57                   240.46                   263.32                   320.76                   328.62                   332.07                   333.37                   244.20                   267.93                   328.44                   336.55                   340.79                   342.39                   240.33                   262.77                   318.16                   325.80                   329.63                   331.18                   230.29                   252.08                   306.12                   313.07                   316.73                   318.28                   213.04                   232.14                   280.15                   286.69                   290.04                   291.31                   200.38                   216.01                   249.05                   252.76                   254.96                   255.90
16.000                   2.2500                   1.5000                   6000.0                   1000.0                   70.000                   263.98                   288.00                   348.28                   356.24                   360.12                   361.63                   266.98                   291.94                   355.78                   364.33                   368.81                   370.37                   257.48                   280.06                   335.56                   342.24                   345.02                   346.10                   250.74                   271.85                   323.50                   330.10                   333.36                   334.71                   261.06                   284.48                   343.54                   351.66                   355.24                   356.56                   265.23                   289.45                   350.99                   359.16                   363.45                   365.04                   260.57                   283.34                   339.53                   347.36                   351.29                   352.86                   249.63                   271.82                   326.65                   333.63                   337.31                   338.85                   231.10                   250.51                   298.99                   305.53                   308.89                   310.16                   217.69                   233.52                   266.89                   270.66                   272.92                   273.88
16.000                   2.2500                   1.5000                   6000.0                   1000.0                   75.000                   284.51                   308.88                   369.99                   378.02                   381.97                   383.48                   287.80                   313.11                   377.53                   386.08                   390.62                   392.14                   277.48                   300.43                   356.99                   363.83                   366.67                   367.77                   270.01                   291.43                   343.64                   350.25                   353.54                   354.86                   281.66                   305.64                   366.32                   374.70                   378.40                   379.75                   286.25                   310.98                   373.53                   381.78                   386.12                   387.68                   280.81                   303.91                   360.90                   368.92                   372.95                   374.53                   268.97                   291.56                   347.18                   354.20                   357.89                   359.42                   249.16                   268.88                   317.83                   324.37                   327.75                   329.02                   235.00                   251.03                   284.73                   288.57                   290.88                   291.85