% Model:              batchmodel_COIL_N_16_COIL_kr_1.5_COIL_kh_1.5_FUNZ_freq_2000_FUNZ_I_eff_4000.mph
% Version:            COMSOL 6.0.0.318
% Date:               Feb 8 2022, 21:26
% Table:              Tabella 1 - GRIGLIA_T
% COIL_N                 COIL_kr                  COIL_kh                  FUNZ_freq                FUNZ_I_eff               Time (s)                 Temperatura (degC), Point: (0, 0)Temperatura (degC), Point: (15, 0)Temperatura (degC), Point: (25.641, 0)Temperatura (degC), Point: (27.821, 0)Temperatura (degC), Point: (29.128, 0)Temperatura (degC), Point: (29.99, 0)Temperatura (degC), Point: (0, 62.5)Temperatura (degC), Point: (15, 62.5)Temperatura (degC), Point: (25.641, 62.5)Temperatura (degC), Point: (27.821, 62.5)Temperatura (degC), Point: (29.128, 62.5)Temperatura (degC), Point: (29.99, 62.5)Temperatura (degC), Point: (0, 125)Temperatura (degC), Point: (15, 125)Temperatura (degC), Point: (25.641, 125)Temperatura (degC), Point: (27.821, 125)Temperatura (degC), Point: (29.128, 125)Temperatura (degC), Point: (29.99, 125)Temperatura (degC), Point: (0, 187.5)Temperatura (degC), Point: (15, 187.5)Temperatura (degC), Point: (25.641, 187.5)Temperatura (degC), Point: (27.821, 187.5)Temperatura (degC), Point: (29.128, 187.5)Temperatura (degC), Point: (29.99, 187.5)Temperatura (degC), Point: (0, 250)Temperatura (degC), Point: (15, 250)Temperatura (degC), Point: (25.641, 250)Temperatura (degC), Point: (27.821, 250)Temperatura (degC), Point: (29.128, 250)Temperatura (degC), Point: (29.99, 250)Temperatura (degC), Point: (0, 312.5)Temperatura (degC), Point: (15, 312.5)Temperatura (degC), Point: (25.641, 312.5)Temperatura (degC), Point: (27.821, 312.5)Temperatura (degC), Point: (29.128, 312.5)Temperatura (degC), Point: (29.99, 312.5)Temperatura (degC), Point: (0, 375)Temperatura (degC), Point: (15, 375)Temperatura (degC), Point: (25.641, 375)Temperatura (degC), Point: (27.821, 375)Temperatura (degC), Point: (29.128, 375)Temperatura (degC), Point: (29.99, 375)Temperatura (degC), Point: (0, 437.5)Temperatura (degC), Point: (15, 437.5)Temperatura (degC), Point: (25.641, 437.5)Temperatura (degC), Point: (27.821, 437.5)Temperatura (degC), Point: (29.128, 437.5)Temperatura (degC), Point: (29.99, 437.5)Temperatura (degC), Point: (0, 468.75)Temperatura (degC), Point: (15, 468.75)Temperatura (degC), Point: (25.641, 468.75)Temperatura (degC), Point: (27.821, 468.75)Temperatura (degC), Point: (29.128, 468.75)Temperatura (degC), Point: (29.99, 468.75)Temperatura (degC), Point: (0, 492.19)Temperatura (degC), Point: (15, 492.19)Temperatura (degC), Point: (25.641, 492.19)Temperatura (degC), Point: (27.821, 492.19)Temperatura (degC), Point: (29.128, 492.19)Temperatura (degC), Point: (29.99, 492.19)
16.000                   1.5000                   1.5000                   2000.0                   4000.0                   0.0000                   20.000                   20.000                   20.000                   20.000                   20.017                   20.111                   20.000                   20.000                   20.000                   20.000                   20.017                   20.112                   20.000                   20.000                   20.000                   20.000                   20.017                   20.113                   20.000                   20.000                   20.000                   20.000                   20.018                   20.115                   20.000                   20.000                   20.000                   20.000                   20.019                   20.119                   20.000                   20.000                   20.000                   20.000                   20.020                   20.122                   20.000                   20.000                   20.000                   20.000                   20.021                   20.127                   20.000                   20.000                   20.000                   20.000                   20.022                   20.132                   20.000                   20.000                   20.000                   20.000                   20.022                   20.135                   20.000                   20.000                   20.000                   20.000                   20.022                   20.142
16.000                   1.5000                   1.5000                   2000.0                   4000.0                   5.0000                   25.792                   46.107                   128.63                   159.73                   180.28                   187.50                   25.803                   46.167                   128.94                   160.16                   180.77                   188.01                   25.836                   46.360                   129.87                   161.41                   182.22                   189.51                   25.891                   46.662                   131.38                   163.44                   184.59                   191.97                   25.963                   47.073                   133.41                   166.18                   187.77                   195.27                   26.051                   47.562                   135.86                   169.49                   191.63                   199.26                   26.148                   48.111                   138.61                   173.20                   195.95                   203.74                   26.249                   48.681                   141.49                   177.09                   200.47                   208.44                   26.208                   48.611                   141.72                   177.52                   201.05                   209.06                   27.048                   50.211                   139.16                   172.48                   194.37                   201.92
16.000                   1.5000                   1.5000                   2000.0                   4000.0                   10.000                   60.221                   111.07                   235.30                   275.62                   300.65                   308.64                   60.275                   111.21                   235.74                   276.17                   301.28                   309.29                   60.437                   111.65                   237.03                   277.81                   303.13                   311.18                   60.702                   112.35                   239.11                   280.45                   306.10                   314.24                   61.053                   113.29                   241.88                   283.97                   310.06                   318.30                   61.475                   114.42                   245.21                   288.17                   314.77                   323.15                   61.942                   115.67                   248.93                   292.89                   320.05                   328.57                   62.401                   116.92                   252.72                   297.75                   325.51                   334.16                   61.898                   115.93                   251.11                   296.07                   323.84                   332.50                   64.194                   117.98                   243.96                   284.30                   309.32                   317.28
16.000                   1.5000                   1.5000                   2000.0                   4000.0                   15.000                   123.38                   190.69                   343.55                   393.26                   422.78                   431.47                   123.48                   190.89                   344.11                   393.99                   423.61                   432.32                   123.77                   191.45                   345.61                   395.88                   425.73                   434.50                   124.23                   192.34                   347.99                   398.86                   429.06                   437.92                   124.84                   193.54                   351.37                   403.41                   434.21                   443.14                   125.58                   194.97                   355.34                   408.61                   440.21                   449.25                   126.39                   196.51                   359.40                   413.76                   446.07                   455.23                   127.11                   197.95                   363.35                   418.99                   452.21                   461.46                   125.49                   195.34                   359.01                   414.01                   446.94                   456.17                   128.39                   196.37                   344.66                   392.14                   420.62                   428.97
16.000                   1.5000                   1.5000                   2000.0                   4000.0                   20.000                   197.60                   274.14                   454.82                   513.79                   547.32                   556.59                   197.73                   274.39                   455.50                   514.62                   548.21                   557.49                   198.05                   275.01                   457.13                   516.76                   550.57                   559.87                   198.57                   275.92                   459.38                   519.58                   553.62                   562.93                   199.26                   277.18                   462.45                   523.20                   557.55                   566.91                   200.09                   278.72                   466.53                   528.27                   562.96                   572.45                   200.96                   280.25                   470.02                   532.15                   566.60                   576.26                   201.58                   281.50                   473.43                   536.43                   571.17                   580.92                   198.53                   277.22                   466.99                   529.36                   563.20                   572.82                   200.66                   275.85                   443.50                   495.73                   524.83                   533.29
16.000                   1.5000                   1.5000                   2000.0                   4000.0                   25.000                   273.64                   357.68                   555.74                   619.99                   655.26                   664.61                   273.81                   357.99                   556.46                   620.94                   656.37                   665.74                   274.16                   358.65                   558.29                   623.49                   659.29                   668.67                   274.64                   359.44                   559.96                   625.63                   661.58                   670.95                   275.30                   360.52                   561.88                   627.65                   663.63                   673.06                   276.14                   362.09                   565.81                   632.63                   668.95                   678.44                   276.93                   363.41                   568.31                   635.20                   671.13                   680.66                   277.27                   364.27                   570.74                   638.31                   674.54                   684.08                   272.88                   358.63                   563.42                   630.23                   665.55                   674.97                   273.22                   353.54                   530.99                   586.13                   615.90                   624.16
16.000                   1.5000                   1.5000                   2000.0                   4000.0                   30.000                   346.25                   435.84                   650.12                   724.62                   764.75                   774.46                   346.46                   436.20                   650.80                   725.50                   765.67                   775.40                   346.83                   436.85                   652.39                   727.59                   767.94                   777.70                   347.26                   437.54                   654.12                   730.06                   770.70                   780.52                   347.83                   438.45                   656.40                   733.34                   774.37                   784.26                   348.70                   440.01                   660.33                   738.62                   780.17                   790.17                   349.38                   441.19                   663.49                   743.16                   785.30                   795.42                   349.41                   441.70                   666.06                   747.08                   789.79                   800.02                   344.00                   435.02                   657.21                   736.75                   779.12                   789.35                   342.28                   426.90                   618.32                   681.41                   715.97                   724.68
16.000                   1.5000                   1.5000                   2000.0                   4000.0                   35.000                   415.03                   507.94                   729.60                   813.91                   859.58                   869.79                   415.28                   508.32                   730.48                   815.28                   861.04                   871.26                   415.65                   508.98                   732.42                   818.36                   864.47                   874.73                   416.05                   509.70                   734.96                   822.53                   869.17                   879.50                   416.53                   510.62                   738.32                   828.12                   875.47                   885.88                   417.42                   512.22                   743.46                   836.18                   884.36                   894.88                   418.04                   513.45                   748.28                   844.02                   893.10                   903.72                   417.82                   513.84                   752.36                   850.94                   900.89                   911.58                   411.50                   505.91                   739.17                   832.90                   882.00                   892.79                   408.02                   495.34                   689.83                   753.18                   788.26                   796.76
16.000                   1.5000                   1.5000                   2000.0                   4000.0                   40.000                   478.17                   571.92                   796.66                   881.13                   921.09                   929.03                   478.45                   572.33                   797.81                   882.55                   922.55                   930.48                   478.83                   573.04                   800.44                   885.94                   926.08                   934.00                   479.25                   573.90                   804.08                   890.65                   930.98                   938.89                   479.74                   574.99                   809.03                   897.11                   937.72                   945.61                   480.68                   576.81                   816.29                   906.25                   947.13                   954.98                   481.33                   578.34                   823.77                   915.76                   956.95                   964.75                   481.02                   579.01                   831.47                   926.01                   967.72                   975.50                   473.50                   569.18                   812.50                   907.09                   950.30                   958.68                   468.30                   555.53                   741.98                   805.07                   838.57                   845.88
16.000                   1.5000                   1.5000                   2000.0                   4000.0                   45.000                   535.54                   625.03                   831.48                   895.38                   924.56                   929.91                   535.84                   625.48                   832.52                   896.46                   925.60                   930.93                   536.28                   626.32                   835.07                   899.27                   928.41                   933.70                   536.83                   627.47                   838.73                   903.21                   932.27                   937.50                   537.47                   628.99                   844.15                   909.17                   938.18                   943.35                   538.63                   631.42                   852.56                   918.19                   947.04                   952.07                   539.53                   633.84                   862.82                   929.39                   958.09                   962.96                   539.42                   635.80                   878.22                   947.29                   976.26                   980.99                   529.72                   622.09                   854.05                   930.13                   963.78                   969.81                   522.54                   605.19                   774.27                   828.00                   854.67                   860.09
16.000                   1.5000                   1.5000                   2000.0                   4000.0                   50.000                   586.28                   667.85                   851.04                   901.44                   924.61                   928.59                   586.62                   668.37                   852.06                   902.41                   925.51                   929.47                   587.19                   669.45                   854.88                   905.29                   928.31                   932.23                   588.00                   671.10                   859.34                   909.73                   932.53                   936.36                   588.96                   673.37                   866.42                   916.95                   939.51                   943.21                   590.56                   676.91                   877.97                   928.56                   950.68                   954.16                   591.97                   680.78                   893.48                   944.45                   966.05                   969.26                   592.49                   685.13                   920.93                   974.68                   995.84                   998.52                   579.29                   665.06                   881.22                   945.59                   974.20                   979.01                   570.22                   645.51                   798.55                   845.26                   868.17                   872.60
16.000                   1.5000                   1.5000                   2000.0                   4000.0                   55.000                   627.80                   700.55                   868.27                   911.10                   930.88                   934.05                   628.20                   701.18                   869.56                   912.30                   931.99                   935.13                   628.95                   702.61                   873.28                   915.97                   935.51                   938.59                   630.10                   704.96                   879.60                   922.07                   941.29                   944.25                   631.51                   708.25                   889.45                   931.74                   950.55                   953.32                   633.69                   713.20                   905.09                   947.02                   965.15                   967.62                   635.76                   718.97                   925.76                   967.85                   985.10                   987.14                   637.32                   726.89                   964.44                   1009.1                   1024.6                   1025.5                   619.57                   698.08                   904.69                   962.47                   988.26                   992.31                   609.11                   676.95                   820.55                   863.30                   884.24                   888.09
16.000                   1.5000                   1.5000                   2000.0                   4000.0                   60.000                   662.90                   727.93                   886.50                   923.54                   940.62                   943.11                   663.36                   728.72                   888.16                   925.06                   942.03                   944.49                   664.28                   730.69                   892.96                   929.67                   946.43                   948.80                   665.77                   734.02                   901.32                   937.61                   953.96                   956.16                   667.61                   738.80                   913.95                   949.82                   965.61                   967.56                   670.31                   745.88                   933.25                   968.72                   983.58                   985.12                   672.97                   754.48                   957.89                   993.60                   1007.1                   1008.0                   675.61                   768.16                   1006.0                   1042.5                   1053.0                   1052.3                   653.49                   725.64                   927.06                   979.92                   1003.4                   1006.8                   642.05                   703.14                   841.97                   881.80                   901.22                   904.56
16.000                   1.5000                   1.5000                   2000.0                   4000.0                   65.000                   691.83                   752.95                   905.83                   937.77                   952.42                   954.25                   692.33                   754.03                   907.89                   939.66                   954.17                   955.97                   693.37                   756.87                   913.74                   945.23                   959.47                   961.15                   695.10                   761.75                   924.02                   954.99                   968.73                   970.21                   697.23                   768.79                   939.15                   969.71                   982.74                   983.92                   700.27                   779.05                   961.46                   991.87                   1003.7                   1004.3                   703.29                   791.30                   988.81                   1019.3                   1029.3                   1029.1                   706.82                   812.33                   1042.6                   1071.1                   1077.5                   1075.6                   681.79                   750.13                   949.13                   998.22                   1019.4                   1022.0                   669.85                   725.22                   862.72                   899.95                   917.91                   920.78
16.000                   1.5000                   1.5000                   2000.0                   4000.0                   70.000                   714.81                   779.15                   925.84                   952.97                   965.21                   966.39                   715.33                   780.68                   928.27                   955.22                   967.33                   968.45                   716.48                   784.70                   935.07                   961.74                   973.53                   974.52                   718.43                   791.60                   947.07                   973.31                   984.52                   985.27                   720.87                   801.26                   964.36                   990.44                   1000.8                   1001.2                   724.29                   814.93                   988.88                   1014.9                   1023.8                   1023.4                   727.81                   830.48                   1017.3                   1042.6                   1049.5                   1048.2                   732.72                   858.27                   1071.3                   1092.7                   1096.2                   1093.4                   704.85                   774.53                   975.41                   1021.6                   1039.5                   1040.9                   692.98                   744.75                   882.07                   916.32                   932.63                   935.01
16.000                   1.5000                   1.5000                   2000.0                   4000.0                   75.000                   735.35                   809.36                   946.31                   968.92                   978.77                   979.26                   736.03                   811.36                   949.08                   971.55                   981.25                   981.68                   737.56                   816.41                   956.71                   978.99                   988.35                   988.62                   740.22                   825.03                   970.07                   992.18                   1000.9                   1000.9                   743.61                   836.61                   988.76                   1011.0                   1018.7                   1018.2                   748.39                   852.34                   1014.0                   1035.8                   1042.0                   1040.6                   753.50                   869.61                   1041.2                   1061.6                   1066.0                   1063.8                   761.72                   901.45                   1090.6                   1106.5                   1107.9                   1104.4                   723.54                   802.01                   1008.8                   1051.0                   1064.1                   1063.8                   711.37                   763.96                   899.17                   929.65                   943.99                   945.81