% Model:              batchmodel_COIL_N_16_COIL_kr_3_COIL_kh_2_FUNZ_freq_6000_FUNZ_I_eff_4000.mph
% Version:            COMSOL 6.0.0.318
% Date:               Feb 9 2022, 00:29
% Table:              Tabella 1 - GRIGLIA_T
% COIL_N                 COIL_kr                  COIL_kh                  FUNZ_freq                FUNZ_I_eff               Time (s)                 Temperatura (degC), Point: (0, 0)Temperatura (degC), Point: (15, 0)Temperatura (degC), Point: (27.483, 0)Temperatura (degC), Point: (28.742, 0)Temperatura (degC), Point: (29.497, 0)Temperatura (degC), Point: (29.99, 0)Temperatura (degC), Point: (0, 62.5)Temperatura (degC), Point: (15, 62.5)Temperatura (degC), Point: (27.483, 62.5)Temperatura (degC), Point: (28.742, 62.5)Temperatura (degC), Point: (29.497, 62.5)Temperatura (degC), Point: (29.99, 62.5)Temperatura (degC), Point: (0, 125)Temperatura (degC), Point: (15, 125)Temperatura (degC), Point: (27.483, 125)Temperatura (degC), Point: (28.742, 125)Temperatura (degC), Point: (29.497, 125)Temperatura (degC), Point: (29.99, 125)Temperatura (degC), Point: (0, 187.5)Temperatura (degC), Point: (15, 187.5)Temperatura (degC), Point: (27.483, 187.5)Temperatura (degC), Point: (28.742, 187.5)Temperatura (degC), Point: (29.497, 187.5)Temperatura (degC), Point: (29.99, 187.5)Temperatura (degC), Point: (0, 250)Temperatura (degC), Point: (15, 250)Temperatura (degC), Point: (27.483, 250)Temperatura (degC), Point: (28.742, 250)Temperatura (degC), Point: (29.497, 250)Temperatura (degC), Point: (29.99, 250)Temperatura (degC), Point: (0, 312.5)Temperatura (degC), Point: (15, 312.5)Temperatura (degC), Point: (27.483, 312.5)Temperatura (degC), Point: (28.742, 312.5)Temperatura (degC), Point: (29.497, 312.5)Temperatura (degC), Point: (29.99, 312.5)Temperatura (degC), Point: (0, 375)Temperatura (degC), Point: (15, 375)Temperatura (degC), Point: (27.483, 375)Temperatura (degC), Point: (28.742, 375)Temperatura (degC), Point: (29.497, 375)Temperatura (degC), Point: (29.99, 375)Temperatura (degC), Point: (0, 437.5)Temperatura (degC), Point: (15, 437.5)Temperatura (degC), Point: (27.483, 437.5)Temperatura (degC), Point: (28.742, 437.5)Temperatura (degC), Point: (29.497, 437.5)Temperatura (degC), Point: (29.99, 437.5)Temperatura (degC), Point: (0, 468.75)Temperatura (degC), Point: (15, 468.75)Temperatura (degC), Point: (27.483, 468.75)Temperatura (degC), Point: (28.742, 468.75)Temperatura (degC), Point: (29.497, 468.75)Temperatura (degC), Point: (29.99, 468.75)Temperatura (degC), Point: (0, 492.19)Temperatura (degC), Point: (15, 492.19)Temperatura (degC), Point: (27.483, 492.19)Temperatura (degC), Point: (28.742, 492.19)Temperatura (degC), Point: (29.497, 492.19)Temperatura (degC), Point: (29.99, 492.19)
16.000                   3.0000                   2.0000                   6000.0                   4000.0                   0.0000                   20.000                   20.000                   20.000                   20.000                   20.123                   20.485                   20.000                   20.000                   20.000                   20.000                   20.123                   20.485                   20.000                   20.000                   20.000                   20.000                   20.123                   20.485                   20.000                   20.000                   20.000                   20.000                   20.123                   20.485                   20.000                   20.000                   20.000                   20.000                   20.123                   20.485                   20.000                   20.000                   20.000                   20.000                   20.123                   20.485                   20.000                   20.000                   20.000                   20.000                   20.123                   20.485                   20.000                   20.000                   20.000                   20.000                   20.121                   20.479                   20.000                   20.000                   20.000                   20.000                   20.112                   20.460                   20.000                   20.000                   20.000                   20.000                   20.090                   20.407
16.000                   3.0000                   2.0000                   6000.0                   4000.0                   5.0000                   30.232                   70.617                   301.76                   351.00                   380.89                   390.00                   30.186                   70.453                   301.32                   350.53                   380.35                   389.48                   30.189                   70.476                   301.37                   350.51                   380.31                   389.43                   30.188                   70.463                   301.27                   350.46                   380.23                   389.34                   30.188                   70.474                   301.55                   350.76                   380.58                   389.71                   30.212                   70.599                   302.25                   351.61                   381.49                   390.61                   30.176                   70.448                   301.36                   350.55                   380.28                   389.40                   30.008                   69.664                   296.02                   343.75                   372.78                   381.72                   29.519                   66.577                   274.90                   317.92                   344.04                   352.26                   40.496                   74.960                   246.14                   278.18                   297.84                   304.39
16.000                   3.0000                   2.0000                   6000.0                   4000.0                   10.000                   97.033                   190.96                   547.38                   619.28                   659.10                   669.95                   97.000                   190.95                   548.56                   620.61                   660.23                   671.10                   96.967                   190.79                   547.15                   619.18                   658.56                   669.37                   96.930                   190.67                   546.29                   617.66                   657.40                   668.29                   96.993                   190.90                   547.49                   619.16                   658.48                   669.33                   97.116                   191.06                   548.01                   619.62                   659.24                   670.13                   96.907                   190.68                   546.14                   616.71                   655.81                   666.69                   95.433                   187.42                   534.25                   603.33                   641.49                   652.08                   91.499                   176.87                   492.17                   553.11                   587.09                   596.72                   104.56                   179.18                   419.35                   458.89                   482.65                   490.52
16.000                   3.0000                   2.0000                   6000.0                   4000.0                   15.000                   200.84                   320.13                   755.34                   858.98                   911.06                   923.19                   200.89                   320.23                   755.12                   858.37                   910.39                   922.51                   200.76                   319.97                   755.13                   858.51                   910.61                   922.75                   200.65                   319.73                   754.45                   857.99                   910.14                   922.30                   200.82                   320.03                   754.27                   857.39                   909.45                   921.60                   200.98                   320.25                   755.47                   859.01                   911.16                   923.30                   200.67                   319.79                   753.95                   857.01                   909.14                   921.31                   197.29                   314.31                   734.65                   831.88                   882.70                   894.82                   188.31                   297.01                   672.96                   749.47                   791.53                   802.28                   194.67                   288.99                   575.12                   624.75                   652.45                   660.08
16.000                   3.0000                   2.0000                   6000.0                   4000.0                   20.000                   308.99                   441.41                   1010.8                   1101.0                   1124.7                   1127.0                   309.07                   440.81                   906.16                   983.34                   1015.8                   1022.2                   308.91                   441.24                   994.88                   1086.2                   1111.1                   1113.7                   308.73                   440.81                   997.30                   1089.9                   1115.0                   1117.7                   308.94                   440.72                   915.17                   994.93                   1027.6                   1033.7                   309.16                   441.02                   905.10                   979.62                   1010.9                   1017.0                   308.81                   440.68                   917.25                   995.96                   1027.7                   1033.6                   303.70                   433.24                   909.06                   999.33                   1036.4                   1043.4                   289.86                   409.53                   821.96                   912.61                   954.89                   964.22                   287.52                   392.00                   687.93                   736.48                   763.52                   770.61
16.000                   3.0000                   2.0000                   6000.0                   4000.0                   25.000                   408.05                   544.40                   1109.3                   1150.1                   1158.8                   1158.0                   407.51                   537.28                   909.63                   954.93                   975.49                   979.63                   408.24                   546.17                   1116.1                   1154.4                   1162.4                   1161.5                   407.68                   543.52                   1104.5                   1146.2                   1155.3                   1154.6                   407.58                   539.58                   965.25                   1017.1                   1036.3                   1039.2                   407.91                   539.33                   923.40                   965.93                   984.22                   987.72                   407.58                   539.93                   964.62                   1013.6                   1031.3                   1033.9                   401.48                   532.65                   959.54                   1009.3                   1027.5                   1030.2                   383.04                   503.20                   905.02                   975.74                   1007.5                   1013.9                   372.87                   477.11                   755.06                   803.99                   830.72                   837.27
16.000                   3.0000                   2.0000                   6000.0                   4000.0                   30.000                   490.87                   622.53                   1115.0                   1142.2                   1147.5                   1146.1                   489.17                   609.93                   940.13                   975.01                   990.68                   993.59                   491.89                   627.85                   1133.7                   1157.1                   1161.1                   1159.4                   490.48                   622.13                   1119.8                   1146.9                   1152.0                   1150.6                   489.80                   615.57                   1028.0                   1066.5                   1077.4                   1077.8                   490.32                   614.48                   966.52                   999.53                   1012.6                   1014.5                   489.95                   615.69                   1012.2                   1049.2                   1060.6                   1061.3                   484.10                   609.89                   989.00                   1024.5                   1036.8                   1038.1                   461.77                   577.86                   974.10                   1031.3                   1052.1                   1055.1                   446.05                   545.64                   815.88                   864.09                   888.90                   894.64
16.000                   3.0000                   2.0000                   6000.0                   4000.0                   35.000                   560.78                   683.29                   1103.8                   1124.4                   1128.0                   1126.5                   558.16                   668.40                   978.29                   1006.5                   1017.9                   1019.5                   562.72                   691.56                   1132.7                   1149.2                   1151.4                   1149.4                   560.51                   683.74                   1116.6                   1136.3                   1139.6                   1137.9                   559.41                   676.67                   1068.6                   1095.2                   1101.5                   1100.7                   560.10                   674.99                   1016.3                   1043.3                   1051.6                   1051.8                   559.64                   676.27                   1050.0                   1077.3                   1084.3                   1083.8                   554.55                   671.13                   1019.6                   1047.5                   1056.0                   1056.2                   529.85                   641.49                   1060.4                   1097.6                   1106.6                   1106.3                   509.07                   602.43                   863.73                   906.74                   928.29                   932.98
16.000                   3.0000                   2.0000                   6000.0                   4000.0                   40.000                   618.53                   731.29                   1097.7                   1113.8                   1116.3                   1114.6                   615.44                   715.98                   1024.1                   1047.6                   1054.7                   1054.7                   621.11                   741.64                   1125.2                   1137.8                   1139.1                   1137.0                   618.45                   732.07                   1106.7                   1122.0                   1124.2                   1122.4                   617.19                   725.73                   1086.7                   1105.6                   1109.2                   1107.8                   617.98                   724.09                   1061.1                   1081.1                   1085.5                   1084.5                   617.43                   724.93                   1073.9                   1093.4                   1097.5                   1096.3                   613.25                   720.23                   1054.6                   1075.7                   1080.7                   1079.8                   588.65                   695.90                   1100.2                   1123.3                   1127.5                   1126.0                   563.67                   649.62                   899.72                   936.76                   955.14                   958.96
16.000                   3.0000                   2.0000                   6000.0                   4000.0                   45.000                   666.05                   773.98                   1100.2                   1112.6                   1114.2                   1112.3                   662.89                   758.43                   1067.3                   1084.4                   1088.0                   1086.7                   668.91                   786.18                   1118.3                   1128.5                   1129.1                   1127.0                   666.15                   775.26                   1104.1                   1116.1                   1117.5                   1115.6                   664.89                   769.40                   1096.0                   1109.5                   1111.4                   1109.7                   665.76                   768.62                   1088.2                   1102.0                   1104.0                   1102.3                   665.09                   768.50                   1090.5                   1104.3                   1106.4                   1104.7                   661.78                   763.87                   1081.9                   1096.7                   1099.2                   1097.6                   639.09                   742.83                   1112.8                   1127.7                   1129.6                   1127.8                   611.02                   689.68                   929.14                   960.47                   975.98                   979.01
16.000                   3.0000                   2.0000                   6000.0                   4000.0                   50.000                   698.75                   816.28                   1107.6                   1117.2                   1117.9                   1115.9                   695.96                   802.92                   1089.6                   1101.9                   1103.6                   1101.8                   701.13                   827.38                   1119.0                   1127.2                   1127.4                   1125.2                   698.81                   817.51                   1109.4                   1118.9                   1119.5                   1117.4                   697.76                   812.78                   1104.9                   1115.1                   1116.0                   1114.0                   698.56                   813.18                   1102.0                   1112.3                   1113.2                   1111.2                   697.91                   812.23                   1102.4                   1112.8                   1113.7                   1111.8                   695.46                   808.01                   1097.5                   1108.4                   1109.6                   1107.7                   676.50                   786.57                   1117.2                   1128.4                   1129.4                   1127.4                   647.72                   721.31                   955.46                   981.47                   993.95                   996.13
16.000                   3.0000                   2.0000                   6000.0                   4000.0                   55.000                   727.31                   857.95                   1115.4                   1122.7                   1122.7                   1120.4                   724.70                   847.34                   1106.6                   1115.1                   1115.4                   1113.3                   729.39                   867.12                   1122.0                   1128.5                   1128.2                   1125.8                   727.32                   858.99                   1116.2                   1123.4                   1123.3                   1121.1                   726.38                   855.37                   1113.8                   1121.4                   1121.4                   1119.2                   727.20                   856.74                   1113.5                   1120.9                   1120.9                   1118.7                   726.51                   855.18                   1113.0                   1120.6                   1120.7                   1118.5                   724.58                   851.46                   1110.1                   1118.0                   1118.1                   1116.0                   708.11                   828.96                   1120.1                   1128.6                   1128.8                   1126.6                   679.94                   753.85                   993.84                   1015.0                   1023.9                   1024.8
16.000                   3.0000                   2.0000                   6000.0                   4000.0                   60.000                   751.96                   898.46                   1123.6                   1128.9                   1128.2                   1125.9                   749.14                   890.96                   1118.7                   1124.6                   1124.2                   1121.9                   754.20                   905.09                   1127.4                   1132.3                   1131.5                   1129.1                   751.95                   899.28                   1123.9                   1129.2                   1128.5                   1126.2                   750.91                   896.57                   1122.6                   1128.1                   1127.5                   1125.1                   751.96                   898.52                   1122.9                   1128.3                   1127.6                   1125.3                   751.05                   896.67                   1122.4                   1127.9                   1127.2                   1124.9                   749.09                   893.45                   1120.1                   1125.7                   1125.2                   1122.8                   732.67                   869.39                   1121.4                   1127.9                   1127.5                   1125.2                   706.78                   789.58                   1052.8                   1070.0                   1074.2                   1073.3
16.000                   3.0000                   2.0000                   6000.0                   4000.0                   65.000                   789.40                   936.22                   1131.9                   1135.7                   1134.6                   1132.1                   786.28                   930.97                   1128.9                   1133.1                   1132.0                   1129.6                   792.18                   940.87                   1134.3                   1137.9                   1136.6                   1134.1                   789.73                   936.92                   1132.1                   1135.9                   1134.7                   1132.2                   788.25                   934.75                   1131.2                   1135.2                   1134.0                   1131.5                   789.95                   936.81                   1131.8                   1135.6                   1134.5                   1132.0                   788.47                   934.96                   1131.2                   1135.1                   1134.0                   1131.5                   785.65                   931.82                   1129.0                   1133.1                   1132.0                   1129.5                   760.78                   905.90                   1124.7                   1129.7                   1128.8                   1126.4                   728.73                   833.51                   1088.8                   1100.7                   1102.3                   1100.5
16.000                   3.0000                   2.0000                   6000.0                   4000.0                   70.000                   833.21                   972.27                   1140.5                   1143.0                   1141.4                   1138.8                   830.10                   968.82                   1138.8                   1141.4                   1139.9                   1137.3                   836.16                   975.32                   1141.8                   1144.3                   1142.6                   1140.0                   833.85                   972.89                   1140.6                   1143.2                   1141.5                   1138.9                   832.01                   971.14                   1140.0                   1142.6                   1141.0                   1138.4                   834.23                   973.14                   1140.7                   1143.2                   1141.6                   1138.9                   832.30                   971.39                   1140.1                   1142.6                   1141.0                   1138.4                   828.56                   968.13                   1137.8                   1140.5                   1138.9                   1136.3                   795.13                   940.61                   1129.1                   1132.7                   1131.5                   1129.0                   753.70                   879.52                   1117.1                   1124.3                   1124.0                   1121.7
16.000                   3.0000                   2.0000                   6000.0                   4000.0                   75.000                   884.34                   1006.2                   1149.4                   1150.8                   1148.8                   1146.1                   881.74                   1004.0                   1148.4                   1149.9                   1147.9                   1145.2                   886.83                   1008.1                   1150.2                   1151.6                   1149.6                   1146.8                   885.19                   1006.8                   1149.6                   1151.0                   1149.0                   1146.3                   883.20                   1005.3                   1149.1                   1150.5                   1148.6                   1145.8                   885.63                   1007.1                   1149.7                   1151.1                   1149.2                   1146.4                   883.51                   1005.5                   1149.1                   1150.6                   1148.6                   1145.9                   878.93                   1001.9                   1146.6                   1148.2                   1146.2                   1143.5                   838.66                   973.28                   1134.9                   1137.3                   1135.7                   1133.1                   784.54                   927.08                   1138.0                   1142.0                   1140.7                   1138.1