% Model:              batchmodel_COIL_N_16_COIL_kr_2.25_COIL_kh_1_FUNZ_freq_2000_FUNZ_I_eff_2500.mph
% Version:            COMSOL 6.0.0.318
% Date:               Feb 8 2022, 21:50
% Table:              Tabella 1 - GRIGLIA_T
% COIL_N                 COIL_kr                  COIL_kh                  FUNZ_freq                FUNZ_I_eff               Time (s)                 Temperatura (degC), Point: (0, 0)Temperatura (degC), Point: (15, 0)Temperatura (degC), Point: (25.641, 0)Temperatura (degC), Point: (27.821, 0)Temperatura (degC), Point: (29.128, 0)Temperatura (degC), Point: (29.99, 0)Temperatura (degC), Point: (0, 62.5)Temperatura (degC), Point: (15, 62.5)Temperatura (degC), Point: (25.641, 62.5)Temperatura (degC), Point: (27.821, 62.5)Temperatura (degC), Point: (29.128, 62.5)Temperatura (degC), Point: (29.99, 62.5)Temperatura (degC), Point: (0, 125)Temperatura (degC), Point: (15, 125)Temperatura (degC), Point: (25.641, 125)Temperatura (degC), Point: (27.821, 125)Temperatura (degC), Point: (29.128, 125)Temperatura (degC), Point: (29.99, 125)Temperatura (degC), Point: (0, 187.5)Temperatura (degC), Point: (15, 187.5)Temperatura (degC), Point: (25.641, 187.5)Temperatura (degC), Point: (27.821, 187.5)Temperatura (degC), Point: (29.128, 187.5)Temperatura (degC), Point: (29.99, 187.5)Temperatura (degC), Point: (0, 250)Temperatura (degC), Point: (15, 250)Temperatura (degC), Point: (25.641, 250)Temperatura (degC), Point: (27.821, 250)Temperatura (degC), Point: (29.128, 250)Temperatura (degC), Point: (29.99, 250)Temperatura (degC), Point: (0, 312.5)Temperatura (degC), Point: (15, 312.5)Temperatura (degC), Point: (25.641, 312.5)Temperatura (degC), Point: (27.821, 312.5)Temperatura (degC), Point: (29.128, 312.5)Temperatura (degC), Point: (29.99, 312.5)Temperatura (degC), Point: (0, 375)Temperatura (degC), Point: (15, 375)Temperatura (degC), Point: (25.641, 375)Temperatura (degC), Point: (27.821, 375)Temperatura (degC), Point: (29.128, 375)Temperatura (degC), Point: (29.99, 375)Temperatura (degC), Point: (0, 437.5)Temperatura (degC), Point: (15, 437.5)Temperatura (degC), Point: (25.641, 437.5)Temperatura (degC), Point: (27.821, 437.5)Temperatura (degC), Point: (29.128, 437.5)Temperatura (degC), Point: (29.99, 437.5)Temperatura (degC), Point: (0, 468.75)Temperatura (degC), Point: (15, 468.75)Temperatura (degC), Point: (25.641, 468.75)Temperatura (degC), Point: (27.821, 468.75)Temperatura (degC), Point: (29.128, 468.75)Temperatura (degC), Point: (29.99, 468.75)Temperatura (degC), Point: (0, 492.19)Temperatura (degC), Point: (15, 492.19)Temperatura (degC), Point: (25.641, 492.19)Temperatura (degC), Point: (27.821, 492.19)Temperatura (degC), Point: (29.128, 492.19)Temperatura (degC), Point: (29.99, 492.19)
16.000                   2.2500                   1.0000                   2000.0                   2500.0                   0.0000                   20.000                   20.000                   20.000                   20.000                   20.013                   20.100                   20.000                   20.000                   20.000                   20.000                   20.013                   20.100                   20.000                   20.000                   20.000                   20.000                   20.014                   20.101                   20.000                   20.000                   20.000                   20.000                   20.014                   20.101                   20.000                   20.000                   20.000                   20.000                   20.014                   20.101                   20.000                   20.000                   20.000                   20.000                   20.014                   20.102                   20.000                   20.000                   20.000                   20.000                   20.014                   20.103                   20.000                   20.000                   20.000                   20.000                   20.014                   20.103                   20.000                   20.000                   20.000                   20.000                   20.012                   20.098                   20.000                   20.000                   20.000                   20.000                   20.007                   20.079
16.000                   2.2500                   1.0000                   2000.0                   2500.0                   5.0000                   23.160                   32.799                   71.221                   85.164                   93.838                   97.395                   23.152                   32.805                   71.383                   85.315                   94.003                   97.543                   23.147                   32.797                   71.353                   85.230                   93.876                   97.373                   23.147                   32.801                   71.595                   85.615                   94.367                   97.778                   23.100                   32.606                   71.224                   85.451                   94.385                   98.016                   23.132                   32.767                   72.030                   86.499                   96.071                   99.933                   23.177                   32.954                   72.574                   87.148                   96.680                   100.63                   23.104                   32.676                   71.416                   85.687                   94.446                   97.935                   22.837                   31.632                   67.658                   81.053                   89.424                   93.039                   23.099                   30.236                   57.784                   67.761                   74.209                   77.100
16.000                   2.2500                   1.0000                   2000.0                   2500.0                   10.000                   41.650                   63.108                   116.52                   133.31                   144.31                   148.69                   41.569                   62.964                   116.18                   132.93                   143.95                   148.33                   41.549                   62.964                   116.33                   133.12                   144.18                   148.59                   41.586                   63.045                   116.51                   133.26                   144.17                   148.57                   41.475                   62.914                   116.61                   133.54                   144.66                   149.09                   41.577                   63.136                   117.15                   134.21                   145.44                   149.83                   41.754                   63.485                   117.90                   135.04                   146.29                   150.67                   41.269                   62.640                   116.20                   133.04                   143.96                   148.36                   39.386                   58.880                   107.85                   123.25                   133.37                   137.43                   37.708                   53.666                   90.509                   101.34                   108.30                   111.28
16.000                   2.2500                   1.0000                   2000.0                   2500.0                   15.000                   69.646                   97.842                   158.97                   176.84                   188.32                   192.66                   69.477                   97.612                   158.68                   176.56                   188.04                   192.38                   69.473                   97.657                   158.86                   176.78                   188.28                   192.63                   69.528                   97.749                   159.07                   177.05                   188.62                   192.98                   69.429                   97.706                   159.24                   177.30                   188.90                   193.28                   69.574                   97.952                   159.76                   177.91                   189.56                   193.97                   69.830                   98.349                   160.46                   178.71                   190.43                   194.86                   68.680                   96.750                   158.08                   176.17                   187.86                   192.25                   64.167                   89.517                   144.68                   160.88                   171.35                   175.40                   59.429                   80.082                   121.53                   132.96                   140.28                   143.32
16.000                   2.2500                   1.0000                   2000.0                   2500.0                   20.000                   102.91                   134.76                   201.37                   220.58                   232.84                   237.32                   102.71                   134.54                   201.20                   220.44                   232.70                   237.19                   102.70                   134.56                   201.24                   220.50                   232.77                   237.26                   102.77                   134.70                   201.60                   220.94                   233.30                   237.80                   102.70                   134.70                   201.79                   221.20                   233.57                   238.09                   102.86                   134.96                   202.36                   221.89                   234.29                   238.84                   103.14                   135.37                   203.10                   222.74                   235.24                   239.81                   101.11                   132.84                   199.83                   219.37                   231.87                   236.41                   93.392                   121.80                   181.52                   198.77                   209.79                   213.94                   85.495                   108.44                   152.80                   164.82                   172.47                   175.56
16.000                   2.2500                   1.0000                   2000.0                   2500.0                   25.000                   138.16                   172.71                   244.25                   264.91                   277.99                   282.63                   137.98                   172.56                   244.22                   264.94                   278.03                   282.67                   137.93                   172.50                   244.14                   264.86                   277.95                   282.60                   138.03                   172.70                   244.61                   265.41                   278.58                   283.24                   137.99                   172.72                   244.79                   265.64                   278.83                   283.51                   138.16                   173.00                   245.40                   266.38                   279.60                   284.30                   138.42                   173.37                   246.10                   267.19                   280.51                   285.22                   135.33                   169.66                   241.21                   262.02                   275.17                   279.81                   124.25                   154.85                   218.48                   236.79                   248.37                   252.62                   113.36                   137.86                   184.51                   197.07                   205.03                   208.17
16.000                   2.2500                   1.0000                   2000.0                   2500.0                   30.000                   174.61                   211.32                   287.62                   309.82                   323.76                   328.53                   174.53                   211.33                   287.77                   309.99                   323.94                   328.71                   174.45                   211.25                   287.73                   310.00                   323.96                   328.75                   174.55                   211.43                   288.12                   310.45                   324.47                   329.27                   174.52                   211.45                   288.29                   310.68                   324.73                   329.54                   174.71                   211.74                   288.91                   311.40                   325.49                   330.32                   174.94                   212.09                   289.60                   312.23                   326.45                   331.30                   170.38                   206.60                   281.82                   303.65                   317.30                   322.04                   156.08                   188.31                   255.30                   274.61                   286.77                   291.14                   142.55                   168.19                   216.87                   229.96                   238.24                   241.41
16.000                   2.2500                   1.0000                   2000.0                   2500.0                   35.000                   211.44                   250.16                   331.19                   354.96                   369.78                   374.69                   211.52                   250.37                   331.54                   355.28                   370.07                   374.97                   211.43                   250.29                   331.62                   355.47                   370.34                   375.25                   211.51                   250.41                   331.84                   355.73                   370.63                   375.55                   211.47                   250.43                   332.01                   355.96                   370.89                   375.83                   211.68                   250.75                   332.62                   356.65                   371.62                   376.58                   211.90                   251.08                   333.33                   357.56                   372.71                   377.69                   205.66                   243.51                   322.08                   344.84                   358.95                   363.79                   188.24                   221.89                   292.03                   312.33                   325.10                   329.57                   172.23                   198.88                   249.51                   263.15                   271.76                   274.98
16.000                   2.2500                   1.0000                   2000.0                   2500.0                   40.000                   247.77                   288.30                   373.80                   399.06                   414.69                   419.69                   248.05                   288.79                   374.44                   399.63                   415.19                   420.18                   247.99                   288.78                   374.76                   400.14                   415.84                   420.85                   247.94                   288.67                   374.46                   399.79                   415.46                   420.47                   247.87                   288.66                   374.66                   400.08                   415.81                   420.83                   248.17                   289.10                   375.42                   400.91                   416.65                   421.69                   248.38                   289.44                   376.21                   401.96                   417.96                   423.05                   240.26                   279.56                   361.30                   385.01                   399.53                   404.44                   219.90                   254.77                   327.65                   348.80                   362.06                   366.61                   201.70                   229.22                   281.56                   295.68                   304.55                   307.80
16.000                   2.2500                   1.0000                   2000.0                   2500.0                   45.000                   283.43                   325.58                   415.19                   441.85                   458.18                   463.23                   283.98                   326.40                   416.25                   442.80                   459.03                   464.06                   284.03                   326.55                   416.94                   443.80                   460.25                   465.31                   283.71                   326.00                   415.69                   442.31                   458.62                   463.66                   283.58                   325.94                   415.94                   442.72                   459.14                   464.21                   284.04                   326.63                   417.08                   443.92                   460.27                   465.34                   284.27                   327.00                   418.00                   445.18                   461.95                   467.08                   274.00                   314.53                   399.23                   423.88                   438.77                   443.70                   250.93                   286.78                   361.86                   383.69                   397.32                   401.89                   230.93                   259.11                   312.85                   327.35                   336.43                   339.67
16.000                   2.2500                   1.0000                   2000.0                   2500.0                   50.000                   319.10                   362.85                   456.59                   484.63                   501.67                   506.76                   319.91                   364.02                   458.06                   485.98                   502.88                   507.95                   320.06                   364.32                   459.13                   487.45                   504.66                   509.77                   319.48                   363.34                   456.92                   484.82                   501.78                   506.85                   319.29                   363.23                   457.22                   485.36                   502.47                   507.58                   319.92                   364.16                   458.74                   486.92                   503.88                   508.99                   320.16                   364.55                   459.79                   488.41                   505.93                   511.12                   307.74                   349.50                   437.15                   462.75                   478.01                   482.96                   281.96                   318.78                   396.06                   418.58                   432.57                   437.16                   260.15                   289.01                   344.14                   359.03                   368.30                   371.55
16.000                   2.2500                   1.0000                   2000.0                   2500.0                   55.000                   354.77                   400.13                   497.98                   527.42                   545.16                   550.29                   355.83                   401.63                   499.87                   529.15                   546.72                   551.83                   356.10                   402.10                   501.31                   531.10                   549.07                   554.23                   355.25                   400.67                   498.16                   527.33                   544.94                   550.04                   354.99                   400.51                   498.50                   528.00                   545.80                   550.95                   355.79                   401.69                   500.40                   529.93                   547.50                   552.64                   356.05                   402.11                   501.58                   531.64                   549.92                   555.15                   341.47                   384.47                   475.08                   501.62                   517.25                   522.22                   312.99                   350.78                   430.27                   453.47                   467.82                   472.43                   289.37                   318.91                   375.44                   390.71                   400.18                   403.43
16.000                   2.2500                   1.0000                   2000.0                   2500.0                   60.000                   390.26                   437.21                   539.16                   569.99                   588.44                   593.61                   391.58                   439.04                   541.43                   572.08                   590.33                   595.48                   391.94                   439.66                   543.22                   574.48                   593.21                   598.41                   390.84                   437.82                   539.18                   569.66                   587.92                   593.05                   390.52                   437.60                   539.57                   570.44                   588.93                   594.12                   391.49                   439.02                   541.83                   572.71                   590.90                   596.07                   391.76                   439.46                   543.12                   574.61                   593.64                   598.93                   375.10                   419.36                   513.02                   540.56                   556.59                   561.59                   343.96                   382.76                   464.56                   488.50                   503.24                   507.87                   318.53                   348.77                   406.72                   422.38                   432.06                   435.31
16.000                   2.2500                   1.0000                   2000.0                   2500.0                   65.000                   421.95                   470.17                   575.48                   607.87                   627.08                   632.29                   423.27                   471.92                   577.57                   609.82                   628.89                   634.07                   423.67                   472.53                   579.14                   611.88                   631.34                   636.57                   422.56                   470.81                   575.66                   607.80                   626.90                   632.07                   422.22                   470.57                   575.97                   608.43                   627.71                   632.94                   423.18                   471.91                   578.01                   610.50                   629.56                   634.77                   423.41                   472.29                   579.08                   612.05                   631.79                   637.09                   406.28                   452.34                   551.20                   581.00                   598.22                   603.28                   373.60                   414.14                   500.75                   526.56                   542.21                   546.89                   346.56                   377.69                   437.70                   454.02                   464.02                   467.27
16.000                   2.2500                   1.0000                   2000.0                   2500.0                   70.000                   453.64                   503.13                   611.80                   645.74                   665.73                   670.96                   454.97                   504.80                   613.71                   647.55                   667.44                   672.66                   455.39                   505.40                   615.07                   649.28                   669.48                   674.73                   454.28                   503.79                   612.15                   645.94                   665.87                   671.09                   453.92                   503.53                   612.36                   646.42                   666.49                   671.75                   454.87                   504.80                   614.19                   648.28                   668.22                   673.46                   455.07                   505.13                   615.04                   649.50                   669.94                   675.26                   437.46                   485.33                   589.38                   621.43                   639.85                   644.97                   403.24                   445.52                   536.94                   564.63                   581.19                   585.92                   374.59                   406.61                   468.69                   485.66                   495.98                   499.23
16.000                   2.2500                   1.0000                   2000.0                   2500.0                   75.000                   485.32                   536.09                   648.12                   683.62                   704.38                   709.64                   486.66                   537.68                   649.86                   685.28                   706.00                   711.25                   487.12                   538.28                   650.99                   686.68                   707.61                   712.88                   486.00                   536.78                   648.63                   684.08                   704.85                   710.11                   485.61                   536.49                   648.76                   684.41                   705.27                   710.56                   486.56                   537.69                   650.37                   686.07                   706.88                   712.16                   486.73                   537.96                   651.00                   686.94                   708.09                   713.42                   468.64                   518.32                   627.57                   661.87                   681.48                   686.65                   432.89                   476.89                   573.13                   602.70                   620.16                   624.95                   402.62                   435.52                   499.67                   517.30                   527.94                   531.19