% Model:              batchmodel_COIL_N_16_COIL_kr_1.5_COIL_kh_1.5_FUNZ_freq_10000_FUNZ_I_eff_2500.mph
% Version:            COMSOL 6.0.0.318
% Date:               Feb 8 2022, 21:35
% Table:              Tabella 1 - GRIGLIA_T
% COIL_N                 COIL_kr                  COIL_kh                  FUNZ_freq                FUNZ_I_eff               Time (s)                 Temperatura (degC), Point: (0, 0)Temperatura (degC), Point: (15, 0)Temperatura (degC), Point: (28.051, 0)Temperatura (degC), Point: (29.025, 0)Temperatura (degC), Point: (29.61, 0)Temperatura (degC), Point: (29.99, 0)Temperatura (degC), Point: (0, 62.5)Temperatura (degC), Point: (15, 62.5)Temperatura (degC), Point: (28.051, 62.5)Temperatura (degC), Point: (29.025, 62.5)Temperatura (degC), Point: (29.61, 62.5)Temperatura (degC), Point: (29.99, 62.5)Temperatura (degC), Point: (0, 125)Temperatura (degC), Point: (15, 125)Temperatura (degC), Point: (28.051, 125)Temperatura (degC), Point: (29.025, 125)Temperatura (degC), Point: (29.61, 125)Temperatura (degC), Point: (29.99, 125)Temperatura (degC), Point: (0, 187.5)Temperatura (degC), Point: (15, 187.5)Temperatura (degC), Point: (28.051, 187.5)Temperatura (degC), Point: (29.025, 187.5)Temperatura (degC), Point: (29.61, 187.5)Temperatura (degC), Point: (29.99, 187.5)Temperatura (degC), Point: (0, 250)Temperatura (degC), Point: (15, 250)Temperatura (degC), Point: (28.051, 250)Temperatura (degC), Point: (29.025, 250)Temperatura (degC), Point: (29.61, 250)Temperatura (degC), Point: (29.99, 250)Temperatura (degC), Point: (0, 312.5)Temperatura (degC), Point: (15, 312.5)Temperatura (degC), Point: (28.051, 312.5)Temperatura (degC), Point: (29.025, 312.5)Temperatura (degC), Point: (29.61, 312.5)Temperatura (degC), Point: (29.99, 312.5)Temperatura (degC), Point: (0, 375)Temperatura (degC), Point: (15, 375)Temperatura (degC), Point: (28.051, 375)Temperatura (degC), Point: (29.025, 375)Temperatura (degC), Point: (29.61, 375)Temperatura (degC), Point: (29.99, 375)Temperatura (degC), Point: (0, 437.5)Temperatura (degC), Point: (15, 437.5)Temperatura (degC), Point: (28.051, 437.5)Temperatura (degC), Point: (29.025, 437.5)Temperatura (degC), Point: (29.61, 437.5)Temperatura (degC), Point: (29.99, 437.5)Temperatura (degC), Point: (0, 468.75)Temperatura (degC), Point: (15, 468.75)Temperatura (degC), Point: (28.051, 468.75)Temperatura (degC), Point: (29.025, 468.75)Temperatura (degC), Point: (29.61, 468.75)Temperatura (degC), Point: (29.99, 468.75)Temperatura (degC), Point: (0, 492.19)Temperatura (degC), Point: (15, 492.19)Temperatura (degC), Point: (28.051, 492.19)Temperatura (degC), Point: (29.025, 492.19)Temperatura (degC), Point: (29.61, 492.19)Temperatura (degC), Point: (29.99, 492.19)
16.000                   1.5000                   1.5000                   10000                    2500.0                   0.0000                   20.000                   20.000                   20.000                   20.000                   20.055                   20.374                   20.000                   20.000                   20.000                   20.000                   20.056                   20.376                   20.000                   20.000                   20.000                   20.000                   20.058                   20.382                   20.000                   20.000                   20.000                   20.000                   20.061                   20.392                   20.000                   20.000                   20.000                   20.000                   20.065                   20.405                   20.000                   20.000                   20.000                   20.000                   20.071                   20.420                   20.000                   20.000                   20.000                   20.000                   20.079                   20.439                   20.000                   20.000                   20.000                   20.000                   20.086                   20.458                   20.000                   20.000                   20.000                   20.000                   20.090                   20.468                   20.000                   20.000                   20.000                   20.000                   20.113                   20.528
16.000                   1.5000                   1.5000                   10000                    2500.0                   5.0000                   27.650                   49.736                   174.39                   192.14                   203.36                   207.69                   27.655                   49.943                   174.80                   192.35                   203.30                   207.54                   27.797                   50.610                   179.32                   197.77                   209.33                   213.65                   27.946                   51.334                   182.17                   200.41                   211.75                   216.18                   27.982                   51.613                   184.68                   203.03                   214.25                   218.69                   28.155                   52.478                   191.35                   211.15                   223.45                   227.97                   28.286                   53.273                   199.59                   221.23                   234.81                   239.61                   28.476                   54.131                   204.74                   226.95                   240.72                   245.66                   28.692                   55.046                   209.11                   231.54                   245.55                   250.59                   31.594                   63.078                   232.21                   256.30                   270.90                   275.98
16.000                   1.5000                   1.5000                   10000                    2500.0                   10.000                   68.485                   122.90                   315.42                   339.60                   354.19                   359.20                   68.643                   123.23                   314.61                   338.61                   353.25                   358.28                   69.320                   124.90                   321.88                   346.70                   361.61                   366.72                   69.905                   126.38                   330.51                   357.16                   373.04                   378.25                   69.991                   126.83                   332.52                   359.50                   375.24                   380.53                   70.746                   128.74                   338.87                   366.21                   382.61                   388.03                   71.458                   130.95                   350.17                   378.98                   395.81                   401.39                   72.223                   132.82                   357.69                   387.82                   406.07                   411.90                   73.222                   134.62                   362.79                   392.99                   411.19                   417.01                   84.265                   153.70                   395.16                   426.38                   444.49                   450.23
16.000                   1.5000                   1.5000                   10000                    2500.0                   15.000                   138.14                   212.18                   451.35                   481.28                   498.95                   504.34                   138.59                   213.09                   456.29                   486.93                   505.18                   510.82                   139.76                   215.22                   461.23                   491.79                   510.08                   515.75                   140.77                   217.36                   469.14                   499.75                   517.46                   523.12                   140.67                   217.45                   471.31                   503.56                   522.29                   527.86                   141.82                   219.64                   477.18                   509.43                   528.01                   533.83                   143.22                   222.94                   493.45                   528.61                   548.25                   554.24                   144.47                   225.59                   504.17                   540.90                   562.19                   568.51                   146.21                   227.77                   508.47                   545.32                   566.73                   573.12                   163.75                   252.75                   537.29                   572.60                   592.53                   598.67
16.000                   1.5000                   1.5000                   10000                    2500.0                   20.000                   220.16                   306.96                   600.19                   639.79                   662.44                   668.87                   220.97                   308.51                   605.10                   645.21                   668.10                   674.57                   222.35                   310.64                   609.94                   650.59                   673.76                   680.28                   223.57                   312.82                   616.66                   658.31                   681.99                   688.60                   223.19                   312.68                   619.59                   662.08                   686.18                   692.90                   224.44                   314.85                   627.28                   671.15                   695.91                   702.79                   226.27                   318.48                   639.94                   685.68                   711.36                   718.46                   227.84                   321.51                   650.51                   697.77                   724.24                   731.49                   229.87                   323.51                   653.26                   700.79                   727.42                   734.72                   249.45                   348.35                   669.49                   713.97                   738.97                   745.83
16.000                   1.5000                   1.5000                   10000                    2500.0                   25.000                   303.33                   398.81                   716.55                   761.36                   786.93                   793.80                   304.36                   400.43                   718.55                   763.04                   788.44                   795.33                   305.74                   402.34                   722.25                   767.55                   793.45                   800.36                   307.04                   404.52                   729.90                   776.99                   803.63                   810.71                   306.53                   404.46                   734.05                   782.56                   810.29                   817.60                   307.71                   406.44                   740.90                   791.27                   819.75                   827.17                   309.74                   410.17                   757.77                   813.22                   843.47                   851.16                   311.47                   413.34                   771.65                   830.81                   862.43                   870.32                   313.36                   414.79                   773.90                   833.71                   865.36                   873.26                   332.59                   437.11                   778.03                   832.15                   861.24                   868.56
16.000                   1.5000                   1.5000                   10000                    2500.0                   30.000                   382.57                   480.98                   791.52                   834.48                   857.16                   862.82                   383.67                   482.48                   794.38                   837.57                   860.33                   865.99                   384.96                   484.19                   798.81                   842.47                   865.36                   871.04                   386.30                   486.42                   807.18                   851.59                   874.70                   880.38                   385.84                   486.65                   813.27                   858.68                   882.18                   887.93                   386.93                   488.56                   822.21                   868.62                   892.48                   898.27                   389.07                   492.42                   837.48                   884.82                   908.89                   914.63                   390.92                   495.85                   851.47                   899.56                   923.65                   929.30                   392.38                   497.01                   867.85                   919.80                   945.23                   951.08                   409.95                   515.67                   860.83                   907.15                   930.30                   935.68
16.000                   1.5000                   1.5000                   10000                    2500.0                   35.000                   452.57                   548.28                   843.29                   881.31                   901.08                   905.84                   453.64                   549.65                   846.12                   884.22                   903.99                   908.73                   454.86                   551.27                   849.93                   888.15                   907.94                   912.67                   456.25                   553.47                   856.14                   894.48                   914.24                   918.94                   455.99                   554.03                   861.61                   900.43                   920.36                   925.07                   457.08                   556.05                   868.67                   907.72                   927.66                   932.34                   459.38                   560.12                   879.35                   918.05                   937.65                   942.19                   461.45                   563.95                   889.14                   926.94                   945.93                   950.29                   462.53                   566.13                   906.52                   942.03                   959.29                   963.16                   477.97                   581.08                   893.94                   925.78                   941.77                   945.44
16.000                   1.5000                   1.5000                   10000                    2500.0                   40.000                   513.72                   603.82                   888.27                   922.69                   940.31                   944.38                   514.76                   605.11                   890.62                   924.99                   942.56                   946.61                   515.97                   606.66                   893.49                   927.78                   945.28                   949.30                   517.44                   608.80                   897.72                   931.78                   949.13                   953.11                   517.44                   609.70                   902.25                   936.40                   953.75                   957.70                   518.66                   611.93                   907.88                   941.74                   958.90                   962.78                   521.20                   616.26                   916.34                   949.16                   965.72                   969.43                   523.56                   620.50                   925.03                   956.31                   971.97                   975.43                   524.60                   624.24                   947.47                   975.45                   988.57                   991.30                   538.24                   636.14                   931.37                   956.53                   969.00                   971.75
16.000                   1.5000                   1.5000                   10000                    2500.0                   45.000                   566.27                   649.43                   920.10                   949.62                   964.65                   968.00                   567.27                   650.63                   921.86                   951.24                   966.19                   969.52                   568.48                   652.15                   923.96                   953.12                   967.94                   971.23                   570.02                   654.29                   926.99                   955.72                   970.31                   973.54                   570.29                   655.57                   931.05                   959.56                   973.99                   977.16                   571.68                   658.11                   936.57                   964.42                   978.44                   981.49                   574.42                   662.77                   945.83                   972.39                   985.55                   988.34                   576.99                   667.35                   957.57                   982.64                   994.70                   997.15                   578.17                   672.29                   988.83                   1012.6                   1022.2                   1023.6                   590.24                   681.89                   969.75                   990.61                   1000.0                   1001.7
16.000                   1.5000                   1.5000                   10000                    2500.0                   50.000                   609.39                   685.67                   938.73                   963.45                   976.02                   978.74                   610.31                   686.73                   940.11                   964.64                   977.12                   979.80                   611.51                   688.32                   942.11                   966.32                   978.61                   981.24                   613.08                   690.56                   945.37                   969.01                   980.97                   983.50                   613.59                   692.30                   950.31                   973.51                   985.14                   987.57                   615.13                   695.23                   958.06                   980.41                   991.43                   993.66                   617.98                   700.24                   972.03                   993.35                   1003.4                   1005.3                   620.63                   705.07                   990.68                   1012.0                   1020.9                   1022.3                   621.95                   710.60                   1024.1                   1044.6                   1051.6                   1052.0                   632.76                   718.83                   1008.0                   1026.4                   1033.3                   1033.8
16.000                   1.5000                   1.5000                   10000                    2500.0                   55.000                   645.80                   715.69                   951.59                   972.00                   982.35                   984.48                   646.65                   716.78                   952.91                   973.11                   983.34                   985.43                   647.82                   718.53                   955.49                   975.31                   985.29                   987.31                   649.39                   721.05                   960.15                   979.36                   988.92                   990.81                   650.11                   723.36                   967.46                   986.19                   995.32                   997.04                   651.76                   726.96                   979.59                   997.94                   1006.4                   1007.8                   654.63                   732.71                   999.41                   1017.7                   1025.2                   1026.1                   657.27                   738.27                   1022.0                   1040.4                   1046.8                   1047.2                   658.64                   744.42                   1050.3                   1067.4                   1072.4                   1072.0                   668.57                   755.15                   1050.2                   1064.7                   1068.7                   1068.3
16.000                   1.5000                   1.5000                   10000                    2500.0                   60.000                   677.29                   742.71                   961.88                   978.42                   986.73                   988.32                   678.05                   743.91                   963.36                   979.69                   987.87                   989.41                   679.18                   745.97                   966.97                   982.91                   990.80                   992.25                   680.71                   749.02                   973.79                   989.17                   996.59                   997.87                   681.59                   752.09                   984.27                   999.38                   1006.3                   1007.4                   683.30                   756.63                   1001.2                   1016.6                   1022.9                   1023.5                   686.09                   763.47                   1025.6                   1041.5                   1047.0                   1047.1                   688.62                   770.06                   1049.3                   1064.8                   1069.3                   1068.9                   689.95                   776.65                   1069.9                   1083.9                   1087.2                   1086.4                   699.13                   792.95                   1087.8                   1098.1                   1099.7                   1098.5
16.000                   1.5000                   1.5000                   10000                    2500.0                   65.000                   703.06                   768.09                   971.13                   984.41                   990.95                   992.05                   703.73                   769.45                   973.02                   986.11                   992.51                   993.56                   704.78                   772.09                   978.13                   990.89                   996.99                   997.92                   706.22                   776.05                   987.81                   1000.3                   1005.9                   1006.7                   707.18                   780.24                   1002.0                   1014.8                   1020.1                   1020.5                   708.86                   786.13                   1022.8                   1036.4                   1041.1                   1041.1                   711.43                   794.55                   1047.9                   1061.5                   1065.3                   1064.8                   713.71                   802.46                   1068.5                   1081.0                   1083.9                   1083.0                   714.88                   809.05                   1082.4                   1093.5                   1095.6                   1094.4                   723.19                   834.69                   1111.6                   1118.2                   1118.5                   1116.8
16.000                   1.5000                   1.5000                   10000                    2500.0                   70.000                   722.33                   795.49                   981.65                   992.33                   997.37                   998.01                   722.91                   797.04                   984.13                   994.68                   999.60                   1000.2                   723.96                   800.26                   991.01                   1001.5                   1006.1                   1006.6                   725.43                   805.04                   1003.4                   1014.1                   1018.4                   1018.6                   726.55                   810.12                   1020.0                   1031.3                   1035.3                   1035.2                   728.38                   817.02                   1041.0                   1052.7                   1056.2                   1055.7                   731.08                   826.24                   1063.1                   1074.2                   1076.7                   1075.8                   733.54                   834.69                   1080.0                   1089.9                   1091.7                   1090.5                   734.79                   840.79                   1089.8                   1098.6                   1099.9                   1098.5                   746.27                   877.09                   1127.7                   1132.2                   1131.7                   1129.9
16.000                   1.5000                   1.5000                   10000                    2500.0                   75.000                   740.51                   823.89                   993.72                   1002.2                   1005.9                   1006.1                   741.08                   825.60                   996.79                   1005.3                   1008.9                   1009.0                   742.26                   829.24                   1005.1                   1013.8                   1017.2                   1017.2                   744.00                   834.58                   1019.2                   1028.5                   1031.7                   1031.4                   745.46                   840.23                   1036.5                   1046.4                   1049.3                   1048.8                   747.74                   847.76                   1056.1                   1065.9                   1068.2                   1067.3                   751.08                   857.34                   1074.6                   1083.3                   1084.9                   1083.7                   754.18                   865.99                   1088.3                   1096.0                   1096.9                   1095.6                   755.83                   871.63                   1095.3                   1102.2                   1102.8                   1101.3                   775.17                   918.05                   1141.1                   1143.9                   1142.9                   1140.9