% Model:              batchmodel_COIL_N_16_COIL_kr_2.25_COIL_kh_2_FUNZ_freq_10000_FUNZ_I_eff_1000.mph
% Version:            COMSOL 6.0.0.318
% Date:               Feb 8 2022, 22:51
% Table:              Tabella 1 - GRIGLIA_T
% COIL_N                 COIL_kr                  COIL_kh                  FUNZ_freq                FUNZ_I_eff               Time (s)                 Temperatura (degC), Point: (0, 0)Temperatura (degC), Point: (15, 0)Temperatura (degC), Point: (28.051, 0)Temperatura (degC), Point: (29.025, 0)Temperatura (degC), Point: (29.61, 0)Temperatura (degC), Point: (29.99, 0)Temperatura (degC), Point: (0, 62.5)Temperatura (degC), Point: (15, 62.5)Temperatura (degC), Point: (28.051, 62.5)Temperatura (degC), Point: (29.025, 62.5)Temperatura (degC), Point: (29.61, 62.5)Temperatura (degC), Point: (29.99, 62.5)Temperatura (degC), Point: (0, 125)Temperatura (degC), Point: (15, 125)Temperatura (degC), Point: (28.051, 125)Temperatura (degC), Point: (29.025, 125)Temperatura (degC), Point: (29.61, 125)Temperatura (degC), Point: (29.99, 125)Temperatura (degC), Point: (0, 187.5)Temperatura (degC), Point: (15, 187.5)Temperatura (degC), Point: (28.051, 187.5)Temperatura (degC), Point: (29.025, 187.5)Temperatura (degC), Point: (29.61, 187.5)Temperatura (degC), Point: (29.99, 187.5)Temperatura (degC), Point: (0, 250)Temperatura (degC), Point: (15, 250)Temperatura (degC), Point: (28.051, 250)Temperatura (degC), Point: (29.025, 250)Temperatura (degC), Point: (29.61, 250)Temperatura (degC), Point: (29.99, 250)Temperatura (degC), Point: (0, 312.5)Temperatura (degC), Point: (15, 312.5)Temperatura (degC), Point: (28.051, 312.5)Temperatura (degC), Point: (29.025, 312.5)Temperatura (degC), Point: (29.61, 312.5)Temperatura (degC), Point: (29.99, 312.5)Temperatura (degC), Point: (0, 375)Temperatura (degC), Point: (15, 375)Temperatura (degC), Point: (28.051, 375)Temperatura (degC), Point: (29.025, 375)Temperatura (degC), Point: (29.61, 375)Temperatura (degC), Point: (29.99, 375)Temperatura (degC), Point: (0, 437.5)Temperatura (degC), Point: (15, 437.5)Temperatura (degC), Point: (28.051, 437.5)Temperatura (degC), Point: (29.025, 437.5)Temperatura (degC), Point: (29.61, 437.5)Temperatura (degC), Point: (29.99, 437.5)Temperatura (degC), Point: (0, 468.75)Temperatura (degC), Point: (15, 468.75)Temperatura (degC), Point: (28.051, 468.75)Temperatura (degC), Point: (29.025, 468.75)Temperatura (degC), Point: (29.61, 468.75)Temperatura (degC), Point: (29.99, 468.75)Temperatura (degC), Point: (0, 492.19)Temperatura (degC), Point: (15, 492.19)Temperatura (degC), Point: (28.051, 492.19)Temperatura (degC), Point: (29.025, 492.19)Temperatura (degC), Point: (29.61, 492.19)Temperatura (degC), Point: (29.99, 492.19)
16.000                   2.2500                   2.0000                   10000                    1000.0                   0.0000                   20.000                   20.000                   20.000                   20.000                   20.007                   20.142                   20.000                   20.000                   20.000                   20.000                   20.007                   20.142                   20.000                   20.000                   20.000                   20.000                   20.007                   20.142                   20.000                   20.000                   20.000                   20.000                   20.007                   20.142                   20.000                   20.000                   20.000                   20.000                   20.007                   20.142                   20.000                   20.000                   20.000                   20.000                   20.007                   20.143                   20.000                   20.000                   20.000                   20.000                   20.007                   20.143                   20.000                   20.000                   20.000                   20.000                   20.007                   20.143                   20.000                   20.000                   20.000                   20.000                   20.007                   20.141                   20.000                   20.000                   20.000                   20.000                   20.004                   20.115
16.000                   2.2500                   2.0000                   10000                    1000.0                   5.0000                   22.059                   27.699                   60.229                   64.730                   67.315                   68.574                   22.092                   27.910                   61.734                   66.451                   69.003                   70.248                   22.103                   27.916                   61.391                   65.945                   68.532                   69.790                   22.114                   27.978                   62.300                   66.844                   69.409                   70.672                   22.101                   27.976                   63.512                   68.579                   71.165                   72.408                   22.052                   27.726                   60.832                   65.452                   68.035                   69.281                   22.064                   27.778                   61.193                   66.065                   68.662                   69.904                   22.024                   27.687                   61.624                   66.441                   68.844                   70.061                   21.933                   27.325                   58.638                   63.074                   65.611                   66.822                   21.876                   26.465                   49.072                   51.988                   53.832                   54.778
16.000                   2.2500                   2.0000                   10000                    1000.0                   10.000                   33.629                   46.977                   93.269                   98.683                   101.42                   102.70                   34.044                   47.933                   95.805                   100.88                   103.62                   104.92                   34.221                   48.296                   97.376                   102.65                   105.48                   106.79                   34.293                   48.459                   98.665                   103.95                   106.79                   108.12                   34.321                   48.670                   101.49                   107.51                   110.36                   111.68                   33.576                   46.786                   92.594                   97.744                   100.54                   101.84                   33.715                   47.152                   94.455                   100.08                   102.95                   104.22                   33.506                   46.935                   95.851                   101.58                   104.31                   105.67                   32.244                   44.268                   86.451                   91.329                   94.026                   95.247                   30.926                   40.643                   70.063                   73.132                   75.035                   75.990
16.000                   2.2500                   2.0000                   10000                    1000.0                   15.000                   51.789                   70.313                   124.89                   130.83                   133.75                   135.09                   52.815                   72.086                   127.91                   133.24                   136.09                   137.42                   53.385                   73.125                   131.44                   137.18                   140.22                   141.59                   53.654                   73.558                   133.03                   138.81                   141.89                   143.28                   53.598                   73.627                   135.50                   141.88                   144.80                   146.12                   51.607                   69.755                   122.94                   128.45                   131.42                   132.77                   51.984                   70.570                   125.79                   131.78                   134.82                   136.16                   51.349                   69.918                   127.52                   134.11                   137.53                   139.06                   47.856                   64.028                   112.36                   117.60                   120.59                   121.89                   44.540                   57.354                   90.330                   93.500                   95.448                   96.412
16.000                   2.2500                   2.0000                   10000                    1000.0                   20.000                   75.103                   96.339                   155.41                   161.70                   164.85                   166.24                   76.852                   98.928                   159.25                   164.93                   168.03                   169.44                   77.877                   100.51                   163.71                   169.79                   173.03                   174.43                   78.536                   101.39                   165.01                   171.00                   174.24                   175.68                   78.061                   100.76                   165.95                   172.36                   175.39                   176.77                   74.607                   95.156                   151.69                   157.37                   160.46                   161.84                   75.274                   96.435                   155.63                   161.71                   164.90                   166.32                   73.978                   95.222                   158.10                   165.47                   169.52                   171.20                   67.388                   85.525                   136.93                   142.54                   145.78                   147.13                   61.697                   75.939                   110.56                   113.81                   115.81                   116.79
16.000                   2.2500                   2.0000                   10000                    1000.0                   25.000                   98.572                   120.77                   179.39                   185.41                   188.65                   190.07                   100.81                   123.76                   183.44                   189.07                   192.29                   193.73                   102.19                   125.64                   187.56                   193.46                   196.75                   198.19                   103.19                   126.88                   188.97                   194.79                   198.09                   199.54                   102.35                   125.77                   188.53                   194.56                   197.70                   199.13                   97.895                   119.40                   175.76                   181.33                   184.50                   185.91                   98.687                   120.77                   179.30                   185.12                   188.36                   189.82                   96.591                   118.71                   179.98                   186.81                   190.75                   192.38                   87.339                   106.30                   157.61                   163.07                   166.31                   167.68                   79.666                   94.634                   130.21                   133.55                   135.61                   136.60
16.000                   2.2500                   2.0000                   10000                    1000.0                   30.000                   122.16                   144.02                   198.51                   203.80                   207.02                   208.46                   124.71                   147.10                   202.33                   207.62                   210.85                   212.30                   126.36                   149.11                   205.15                   210.49                   213.74                   215.19                   127.67                   150.65                   206.99                   212.35                   215.62                   217.07                   126.50                   149.20                   205.27                   210.62                   213.87                   215.32                   121.40                   142.78                   196.36                   201.61                   204.83                   206.27                   122.19                   143.97                   198.39                   203.68                   206.91                   208.36                   119.19                   140.84                   195.39                   200.72                   203.98                   205.44                   107.60                   126.54                   175.42                   180.33                   183.36                   184.74                   98.238                   113.41                   149.43                   152.86                   154.97                   155.99
16.000                   2.2500                   2.0000                   10000                    1000.0                   35.000                   144.88                   166.41                   220.45                   225.83                   229.15                   230.62                   147.51                   169.38                   223.92                   229.33                   232.67                   234.14                   149.33                   171.44                   226.45                   231.88                   235.23                   236.70                   150.82                   173.10                   228.33                   233.78                   237.13                   238.61                   149.46                   171.53                   226.50                   231.94                   235.29                   236.77                   144.17                   165.42                   219.15                   224.54                   227.87                   229.34                   144.81                   166.30                   220.39                   225.79                   229.13                   230.60                   140.85                   162.11                   215.75                   221.09                   224.39                   225.86                   127.51                   146.47                   195.59                   200.60                   203.70                   205.11                   116.89                   132.23                   168.79                   172.29                   174.44                   175.47
16.000                   2.2500                   2.0000                   10000                    1000.0                   40.000                   167.24                   188.62                   243.16                   248.73                   252.16                   253.66                   169.85                   191.43                   246.29                   251.88                   255.33                   256.84                   171.80                   193.53                   248.68                   254.29                   257.75                   259.25                   173.39                   195.24                   250.55                   256.17                   259.63                   261.14                   171.91                   193.63                   248.76                   254.36                   257.82                   259.33                   166.61                   187.88                   242.43                   248.01                   251.46                   252.97                   167.06                   188.44                   243.10                   248.69                   252.14                   253.64                   162.14                   183.22                   237.13                   242.63                   246.03                   247.52                   147.29                   166.37                   216.26                   221.43                   224.63                   226.06                   135.58                   151.11                   188.27                   191.84                   194.04                   195.08
16.000                   2.2500                   2.0000                   10000                    1000.0                   45.000                   189.31                   210.81                   266.57                   272.34                   275.91                   277.45                   191.83                   213.45                   269.41                   275.20                   278.78                   280.32                   193.85                   215.57                   271.73                   277.54                   281.13                   282.67                   195.49                   217.28                   273.57                   279.38                   282.98                   284.52                   193.95                   215.66                   271.82                   277.63                   281.22                   282.76                   188.75                   210.25                   266.17                   271.96                   275.54                   277.08                   188.99                   210.52                   266.42                   272.21                   275.79                   277.34                   183.13                   204.31                   259.23                   264.91                   268.43                   269.95                   167.00                   186.34                   237.36                   242.69                   246.00                   247.46                   154.34                   170.10                   207.92                   211.56                   213.81                   214.86
16.000                   2.2500                   2.0000                   10000                    1000.0                   50.000                   211.16                   233.05                   290.52                   296.51                   300.22                   301.79                   213.57                   235.51                   293.11                   299.13                   302.85                   304.42                   215.63                   237.64                   295.41                   301.44                   305.17                   306.75                   217.25                   239.32                   297.20                   303.24                   306.97                   308.55                   215.70                   237.71                   295.50                   301.53                   305.27                   306.85                   210.68                   232.61                   290.28                   296.30                   300.02                   301.60                   210.70                   232.62                   290.22                   296.24                   299.96                   301.54                   203.92                   225.43                   281.87                   287.74                   291.38                   292.93                   186.67                   206.37                   258.80                   264.31                   267.73                   269.22                   173.17                   189.17                   227.71                   231.44                   233.74                   234.80
16.000                   2.2500                   2.0000                   10000                    1000.0                   55.000                   233.02                   255.28                   314.46                   320.68                   324.53                   326.14                   235.30                   257.57                   316.82                   323.05                   326.91                   328.52                   237.41                   259.72                   319.09                   325.35                   329.22                   330.83                   239.02                   261.36                   320.83                   327.09                   330.97                   332.59                   237.45                   259.77                   319.17                   325.44                   329.31                   330.93                   232.62                   254.96                   314.40                   320.64                   324.51                   326.12                   232.41                   254.71                   314.03                   320.27                   324.13                   325.74                   224.70                   246.55                   304.50                   310.58                   314.34                   315.91                   206.33                   226.40                   280.24                   285.93                   289.46                   290.98                   192.00                   208.25                   247.51                   251.31                   253.66                   254.74
16.000                   2.2500                   2.0000                   10000                    1000.0                   60.000                   254.73                   277.68                   339.17                   345.65                   349.66                   351.31                   256.87                   279.82                   341.37                   347.87                   351.89                   353.54                   258.98                   281.96                   343.64                   350.16                   354.19                   355.83                   260.54                   283.55                   345.33                   351.85                   355.89                   357.54                   258.98                   281.98                   343.71                   350.24                   354.27                   355.92                   254.37                   277.40                   339.12                   345.62                   349.65                   351.30                   253.97                   276.95                   338.55                   345.06                   349.08                   350.73                   245.36                   267.85                   327.96                   334.29                   338.20                   339.81                   225.97                   246.57                   302.17                   308.06                   311.72                   313.27                   210.87                   227.44                   267.58                   271.48                   273.88                   274.97
16.000                   2.2500                   2.0000                   10000                    1000.0                   65.000                   276.44                   300.08                   363.89                   370.64                   374.81                   376.49                   278.44                   302.08                   365.94                   372.70                   376.88                   378.56                   280.54                   304.21                   368.20                   374.98                   379.17                   380.85                   282.06                   305.74                   369.83                   376.63                   380.83                   382.51                   280.52                   304.20                   368.25                   375.05                   379.25                   380.94                   276.12                   299.85                   363.85                   370.62                   374.80                   376.48                   275.51                   299.19                   363.09                   369.86                   374.04                   375.72                   266.01                   289.15                   351.44                   358.01                   362.08                   363.72                   245.60                   266.75                   324.10                   330.21                   333.99                   335.56                   229.73                   246.63                   287.65                   291.64                   294.11                   295.21
16.000                   2.2500                   2.0000                   10000                    1000.0                   70.000                   298.11                   322.51                   388.70                   395.73                   400.06                   401.77                   299.99                   324.38                   390.62                   397.65                   401.99                   403.71                   302.07                   326.48                   392.85                   399.90                   404.24                   405.96                   303.53                   327.96                   394.43                   401.50                   405.86                   407.58                   302.01                   326.45                   392.89                   399.95                   404.31                   406.03                   297.81                   322.28                   388.64                   395.68                   400.02                   401.74                   297.04                   321.46                   387.73                   394.76                   399.11                   400.83                   286.69                   310.55                   375.11                   381.94                   386.16                   387.84                   265.25                   286.98                   346.18                   352.49                   356.40                   358.01                   248.59                   265.83                   307.78                   311.87                   314.39                   315.50
16.000                   2.2500                   2.0000                   10000                    1000.0                   75.000                   319.75                   344.95                   413.60                   420.90                   425.40                   427.15                   321.51                   346.71                   415.40                   422.71                   427.22                   428.96                   323.55                   348.77                   417.57                   424.90                   429.41                   431.15                   324.95                   350.19                   419.11                   426.46                   430.98                   432.73                   323.47                   348.71                   417.60                   424.94                   429.47                   431.22                   319.44                   344.71                   413.49                   420.80                   425.31                   427.06                   318.54                   343.76                   412.46                   419.77                   424.28                   426.03                   307.39                   332.03                   398.96                   406.06                   410.44                   412.15                   284.91                   307.27                   368.39                   374.92                   378.96                   380.60                   267.44                   285.05                   327.95                   332.14                   334.72                   335.85