% Model:              batchmodel_COIL_N_16_COIL_kr_3_COIL_kh_2_FUNZ_freq_6000_FUNZ_I_eff_2500.mph
% Version:            COMSOL 6.0.0.318
% Date:               Feb 9 2022, 00:22
% Table:              Tabella 1 - GRIGLIA_T
% COIL_N                 COIL_kr                  COIL_kh                  FUNZ_freq                FUNZ_I_eff               Time (s)                 Temperatura (degC), Point: (0, 0)Temperatura (degC), Point: (15, 0)Temperatura (degC), Point: (27.483, 0)Temperatura (degC), Point: (28.742, 0)Temperatura (degC), Point: (29.497, 0)Temperatura (degC), Point: (29.99, 0)Temperatura (degC), Point: (0, 62.5)Temperatura (degC), Point: (15, 62.5)Temperatura (degC), Point: (27.483, 62.5)Temperatura (degC), Point: (28.742, 62.5)Temperatura (degC), Point: (29.497, 62.5)Temperatura (degC), Point: (29.99, 62.5)Temperatura (degC), Point: (0, 125)Temperatura (degC), Point: (15, 125)Temperatura (degC), Point: (27.483, 125)Temperatura (degC), Point: (28.742, 125)Temperatura (degC), Point: (29.497, 125)Temperatura (degC), Point: (29.99, 125)Temperatura (degC), Point: (0, 187.5)Temperatura (degC), Point: (15, 187.5)Temperatura (degC), Point: (27.483, 187.5)Temperatura (degC), Point: (28.742, 187.5)Temperatura (degC), Point: (29.497, 187.5)Temperatura (degC), Point: (29.99, 187.5)Temperatura (degC), Point: (0, 250)Temperatura (degC), Point: (15, 250)Temperatura (degC), Point: (27.483, 250)Temperatura (degC), Point: (28.742, 250)Temperatura (degC), Point: (29.497, 250)Temperatura (degC), Point: (29.99, 250)Temperatura (degC), Point: (0, 312.5)Temperatura (degC), Point: (15, 312.5)Temperatura (degC), Point: (27.483, 312.5)Temperatura (degC), Point: (28.742, 312.5)Temperatura (degC), Point: (29.497, 312.5)Temperatura (degC), Point: (29.99, 312.5)Temperatura (degC), Point: (0, 375)Temperatura (degC), Point: (15, 375)Temperatura (degC), Point: (27.483, 375)Temperatura (degC), Point: (28.742, 375)Temperatura (degC), Point: (29.497, 375)Temperatura (degC), Point: (29.99, 375)Temperatura (degC), Point: (0, 437.5)Temperatura (degC), Point: (15, 437.5)Temperatura (degC), Point: (27.483, 437.5)Temperatura (degC), Point: (28.742, 437.5)Temperatura (degC), Point: (29.497, 437.5)Temperatura (degC), Point: (29.99, 437.5)Temperatura (degC), Point: (0, 468.75)Temperatura (degC), Point: (15, 468.75)Temperatura (degC), Point: (27.483, 468.75)Temperatura (degC), Point: (28.742, 468.75)Temperatura (degC), Point: (29.497, 468.75)Temperatura (degC), Point: (29.99, 468.75)Temperatura (degC), Point: (0, 492.19)Temperatura (degC), Point: (15, 492.19)Temperatura (degC), Point: (27.483, 492.19)Temperatura (degC), Point: (28.742, 492.19)Temperatura (degC), Point: (29.497, 492.19)Temperatura (degC), Point: (29.99, 492.19)
16.000                   3.0000                   2.0000                   6000.0                   2500.0                   0.0000                   20.000                   20.000                   20.000                   20.000                   20.044                   20.277                   20.000                   20.000                   20.000                   20.000                   20.044                   20.277                   20.000                   20.000                   20.000                   20.000                   20.044                   20.277                   20.000                   20.000                   20.000                   20.000                   20.044                   20.277                   20.000                   20.000                   20.000                   20.000                   20.044                   20.277                   20.000                   20.000                   20.000                   20.000                   20.044                   20.277                   20.000                   20.000                   20.000                   20.000                   20.044                   20.277                   20.000                   20.000                   20.000                   20.000                   20.043                   20.274                   20.000                   20.000                   20.000                   20.000                   20.038                   20.263                   20.000                   20.000                   20.000                   20.000                   20.026                   20.222
16.000                   3.0000                   2.0000                   6000.0                   2500.0                   5.0000                   24.896                   42.982                   135.58                   152.97                   164.30                   168.64                   24.870                   42.877                   134.51                   151.69                   163.00                   167.38                   24.904                   43.117                   136.47                   153.88                   165.31                   169.71                   24.873                   43.007                   136.92                   154.55                   165.98                   170.39                   24.868                   42.954                   136.30                   153.76                   165.00                   169.37                   24.833                   42.734                   135.04                   152.43                   163.77                   168.17                   24.870                   43.040                   137.18                   154.89                   166.48                   170.91                   24.792                   42.591                   135.01                   152.51                   163.90                   168.26                   24.410                   40.770                   124.53                   140.07                   150.25                   154.32                   24.727                   39.585                   107.50                   119.41                   127.11                   130.31
16.000                   3.0000                   2.0000                   6000.0                   2500.0                   10.000                   56.698                   97.699                   231.32                   253.29                   266.78                   271.58                   56.640                   97.621                   231.78                   254.31                   268.36                   273.21                   56.894                   98.124                   232.39                   254.88                   268.87                   273.68                   56.719                   97.866                   232.32                   254.84                   268.91                   273.79                   56.761                   97.930                   231.98                   254.27                   268.20                   273.06                   56.460                   97.316                   230.51                   252.34                   265.86                   270.74                   56.742                   97.910                   231.57                   253.80                   267.75                   272.57                   55.864                   95.994                   225.71                   247.01                   260.31                   265.11                   52.789                   89.199                   205.54                   224.24                   235.92                   240.32                   51.112                   82.853                   173.95                   187.69                   196.35                   199.75
16.000                   3.0000                   2.0000                   6000.0                   2500.0                   15.000                   107.83                   162.36                   321.28                   346.50                   361.99                   367.21                   107.74                   162.18                   320.96                   346.04                   361.40                   366.63                   108.13                   162.73                   321.81                   346.93                   362.41                   367.65                   107.84                   162.37                   321.21                   346.33                   361.77                   366.99                   107.90                   162.40                   321.31                   346.48                   361.97                   367.18                   107.44                   161.81                   320.57                   345.87                   361.37                   366.55                   107.86                   162.34                   321.04                   346.14                   361.52                   366.72                   105.38                   158.17                   310.89                   334.92                   349.68                   354.64                   97.804                   145.25                   281.21                   302.42                   315.51                   320.10                   91.915                   132.42                   235.97                   250.57                   259.65                   263.10
16.000                   3.0000                   2.0000                   6000.0                   2500.0                   20.000                   168.52                   231.88                   415.90                   445.34                   462.86                   468.34                   168.33                   231.60                   416.95                   446.45                   464.29                   470.07                   168.61                   231.67                   415.35                   445.09                   463.00                   468.50                   168.31                   231.37                   413.99                   442.91                   459.91                   465.37                   168.33                   231.45                   415.92                   445.45                   462.88                   468.37                   167.89                   230.88                   414.78                   444.44                   462.03                   467.37                   168.19                   231.13                   414.87                   444.79                   462.76                   468.20                   163.34                   223.82                   397.17                   424.73                   441.09                   446.12                   150.50                   204.43                   356.84                   380.61                   394.70                   399.42                   140.10                   185.42                   297.82                   313.54                   323.09                   326.57
16.000                   3.0000                   2.0000                   6000.0                   2500.0                   25.000                   231.60                   302.20                   510.24                   544.16                   563.87                   569.72                   231.20                   301.54                   509.25                   542.48                   561.83                   567.77                   231.38                   301.39                   508.08                   542.23                   562.50                   568.33                   231.05                   301.03                   505.85                   538.49                   557.12                   562.87                   230.94                   300.91                   507.48                   541.18                   560.78                   566.60                   230.70                   300.78                   508.42                   542.78                   562.77                   568.41                   230.65                   300.31                   505.33                   539.11                   559.03                   564.73                   223.15                   289.66                   482.43                   513.92                   532.09                   537.17                   204.96                   263.63                   429.40                   455.29                   470.23                   474.98                   190.23                   239.03                   359.15                   375.95                   386.05                   389.61
16.000                   3.0000                   2.0000                   6000.0                   2500.0                   30.000                   294.73                   371.13                   597.91                   635.76                   657.55                   663.75                   293.93                   369.66                   593.40                   629.69                   650.44                   656.48                   294.17                   369.82                   594.24                   631.72                   653.63                   659.77                   293.65                   369.03                   590.32                   625.92                   645.76                   651.67                   293.41                   368.72                   591.20                   627.63                   648.53                   654.63                   293.47                   369.22                   594.93                   632.93                   654.71                   660.63                   293.01                   368.13                   590.77                   628.00                   649.80                   655.82                   282.82                   354.30                   563.18                   598.26                   618.17                   623.42                   259.53                   322.10                   499.62                   527.29                   542.93                   547.79                   240.78                   292.38                   419.69                   437.49                   448.17                   451.79
16.000                   3.0000                   2.0000                   6000.0                   2500.0                   35.000                   356.11                   436.94                   677.40                   719.47                   743.54                   750.03                   354.81                   434.50                   669.87                   709.33                   732.01                   738.26                   355.16                   435.02                   672.18                   713.35                   737.39                   743.85                   354.44                   433.86                   667.90                   707.03                   728.77                   734.96                   354.09                   433.37                   667.41                   706.75                   729.35                   735.76                   354.51                   434.58                   674.51                   716.93                   741.03                   747.29                   353.60                   432.83                   668.41                   709.21                   733.29                   739.72                   341.04                   416.42                   638.43                   676.85                   698.53                   704.02                   313.32                   379.39                   568.89                   598.84                   615.55                   620.56                   290.95                   345.03                   479.18                   498.04                   509.30                   512.95
16.000                   3.0000                   2.0000                   6000.0                   2500.0                   40.000                   416.07                   500.21                   750.22                   796.76                   823.25                   829.99                   414.18                   496.66                   740.08                   782.80                   807.82                   814.36                   414.68                   497.57                   743.42                   788.57                   815.14                   821.92                   413.77                   496.11                   739.87                   782.98                   807.18                   813.75                   413.31                   495.43                   737.47                   779.90                   804.50                   811.24                   414.14                   497.44                   748.44                   795.90                   822.78                   829.41                   412.73                   494.99                   739.70                   784.14                   810.85                   817.75                   398.06                   476.48                   709.19                   750.73                   774.21                   780.00                   366.47                   435.71                   637.40                   670.03                   688.10                   693.32                   340.82                   397.12                   537.81                   557.79                   569.63                   573.28
16.000                   3.0000                   2.0000                   6000.0                   2500.0                   45.000                   469.43                   554.98                   834.03                   887.43                   914.73                   920.98                   467.06                   550.98                   822.50                   874.46                   901.37                   907.63                   467.72                   552.12                   826.40                   879.35                   906.80                   913.12                   466.66                   550.55                   822.66                   874.85                   901.46                   907.74                   466.16                   549.83                   820.22                   872.10                   898.88                   905.23                   467.29                   552.11                   830.30                   884.24                   911.80                   918.05                   465.52                   549.44                   822.61                   875.50                   903.12                   909.52                   449.29                   529.66                   782.15                   832.22                   858.61                   864.81                   415.24                   486.37                   694.56                   730.84                   751.64                   757.27                   387.44                   445.20                   592.49                   614.08                   626.81                   630.57
16.000                   3.0000                   2.0000                   6000.0                   2500.0                   50.000                   522.10                   608.55                   916.66                   973.31                   999.95                   1005.4                   519.29                   604.19                   904.43                   961.48                   988.50                   994.10                   520.11                   605.52                   908.67                   965.60                   992.51                   998.06                   518.89                   603.87                   904.79                   962.11                   989.19                   994.77                   518.36                   603.15                   902.98                   960.43                   987.61                   993.22                   519.78                   605.61                   911.21                   968.32                   995.15                   1000.6                   517.66                   602.80                   905.03                   962.63                   989.80                   995.41                   499.89                   581.92                   856.75                   912.77                   940.44                   946.57                   463.43                   536.30                   750.75                   791.65                   815.06                   820.95                   433.56                   492.76                   645.59                   668.45                   681.80                   685.60
16.000                   3.0000                   2.0000                   6000.0                   2500.0                   55.000                   570.20                   655.41                   971.02                   1018.0                   1037.6                   1040.8                   567.19                   651.12                   959.95                   1007.6                   1028.4                   1032.1                   568.08                   652.31                   959.31                   1006.0                   1026.7                   1030.4                   566.82                   650.84                   960.94                   1009.2                   1030.0                   1033.6                   566.31                   650.22                   960.10                   1008.5                   1029.5                   1033.2                   567.84                   652.58                   966.44                   1014.3                   1034.5                   1037.9                   565.60                   649.85                   959.66                   1007.8                   1028.9                   1032.6                   546.88                   628.72                   922.90                   974.40                   998.66                   1003.6                   508.29                   581.36                   804.77                   849.06                   872.56                   878.12                   476.70                   536.53                   687.81                   710.28                   723.42                   727.04
16.000                   3.0000                   2.0000                   6000.0                   2500.0                   60.000                   613.62                   696.31                   1011.3                   1047.8                   1060.1                   1061.1                   610.60                   691.97                   988.42                   1024.6                   1038.9                   1040.9                   611.38                   692.20                   972.34                   1006.7                   1021.9                   1024.4                   610.26                   691.92                   1003.9                   1042.2                   1055.7                   1057.1                   609.79                   691.16                   988.21                   1024.7                   1039.0                   1041.0                   611.36                   693.69                   1007.9                   1045.2                   1058.0                   1059.2                   609.05                   690.41                   978.49                   1014.2                   1029.3                   1031.7                   590.23                   670.54                   967.71                   1011.6                   1030.7                   1033.9                   550.31                   622.11                   854.67                   898.02                   920.23                   925.19                   517.35                   576.32                   721.13                   742.65                   755.40                   758.82
16.000                   3.0000                   2.0000                   6000.0                   2500.0                   65.000                   651.93                   731.73                   1048.1                   1075.2                   1082.2                   1081.7                   648.98                   726.45                   1005.1                   1032.3                   1042.1                   1042.9                   649.44                   724.99                   976.06                   1002.4                   1014.5                   1016.4                   648.69                   727.15                   1042.6                   1071.7                   1079.7                   1079.4                   648.23                   725.68                   1003.9                   1031.2                   1041.1                   1042.0                   649.86                   729.15                   1045.1                   1072.9                   1080.2                   1079.8                   647.44                   724.14                   988.45                   1016.3                   1028.1                   1029.7                   629.34                   707.09                   1009.2                   1045.0                   1057.2                   1058.3                   589.03                   658.63                   894.13                   933.65                   953.43                   957.63                   555.24                   611.82                   748.44                   769.46                   781.89                   785.12
16.000                   3.0000                   2.0000                   6000.0                   2500.0                   70.000                   683.90                   764.19                   1067.1                   1087.0                   1091.4                   1090.3                   681.05                   756.88                   1019.9                   1041.7                   1048.8                   1048.8                   681.06                   752.81                   981.41                   1002.8                   1012.5                   1013.9                   680.86                   758.92                   1062.8                   1084.6                   1089.7                   1088.7                   680.36                   755.90                   1017.6                   1039.6                   1046.9                   1047.1                   682.11                   761.71                   1064.2                   1084.6                   1089.1                   1088.0                   679.46                   753.11                   998.96                   1021.9                   1031.1                   1032.1                   663.10                   738.96                   1038.9                   1065.7                   1073.0                   1072.7                   623.25                   689.92                   921.82                   956.61                   973.96                   977.47                   589.28                   642.64                   772.94                   793.99                   806.19                   809.23
16.000                   3.0000                   2.0000                   6000.0                   2500.0                   75.000                   707.76                   795.98                   1073.4                   1089.3                   1092.4                   1091.0                   705.13                   786.63                   1032.7                   1051.1                   1056.5                   1056.0                   704.69                   779.48                   990.10                   1007.9                   1015.7                   1016.5                   705.08                   789.95                   1069.6                   1087.2                   1090.9                   1089.7                   704.53                   785.19                   1029.1                   1047.8                   1053.5                   1053.2                   706.33                   793.89                   1070.2                   1086.4                   1089.6                   1088.3                   703.55                   781.00                   1011.0                   1030.4                   1037.6                   1037.9                   690.08                   769.05                   1051.9                   1072.7                   1077.8                   1076.9                   651.90                   715.25                   941.66                   972.62                   988.00                   990.97                   618.22                   668.27                   796.51                   817.48                   829.30                   832.14