% Model:              batchmodel_COIL_N_16_COIL_kr_2.25_COIL_kh_1.5_FUNZ_freq_10000_FUNZ_I_eff_2500.mph
% Version:            COMSOL 6.0.0.318
% Date:               Feb 8 2022, 22:47
% Table:              Tabella 1 - GRIGLIA_T
% COIL_N                 COIL_kr                  COIL_kh                  FUNZ_freq                FUNZ_I_eff               Time (s)                 Temperatura (degC), Point: (0, 0)Temperatura (degC), Point: (15, 0)Temperatura (degC), Point: (28.051, 0)Temperatura (degC), Point: (29.025, 0)Temperatura (degC), Point: (29.61, 0)Temperatura (degC), Point: (29.99, 0)Temperatura (degC), Point: (0, 62.5)Temperatura (degC), Point: (15, 62.5)Temperatura (degC), Point: (28.051, 62.5)Temperatura (degC), Point: (29.025, 62.5)Temperatura (degC), Point: (29.61, 62.5)Temperatura (degC), Point: (29.99, 62.5)Temperatura (degC), Point: (0, 125)Temperatura (degC), Point: (15, 125)Temperatura (degC), Point: (28.051, 125)Temperatura (degC), Point: (29.025, 125)Temperatura (degC), Point: (29.61, 125)Temperatura (degC), Point: (29.99, 125)Temperatura (degC), Point: (0, 187.5)Temperatura (degC), Point: (15, 187.5)Temperatura (degC), Point: (28.051, 187.5)Temperatura (degC), Point: (29.025, 187.5)Temperatura (degC), Point: (29.61, 187.5)Temperatura (degC), Point: (29.99, 187.5)Temperatura (degC), Point: (0, 250)Temperatura (degC), Point: (15, 250)Temperatura (degC), Point: (28.051, 250)Temperatura (degC), Point: (29.025, 250)Temperatura (degC), Point: (29.61, 250)Temperatura (degC), Point: (29.99, 250)Temperatura (degC), Point: (0, 312.5)Temperatura (degC), Point: (15, 312.5)Temperatura (degC), Point: (28.051, 312.5)Temperatura (degC), Point: (29.025, 312.5)Temperatura (degC), Point: (29.61, 312.5)Temperatura (degC), Point: (29.99, 312.5)Temperatura (degC), Point: (0, 375)Temperatura (degC), Point: (15, 375)Temperatura (degC), Point: (28.051, 375)Temperatura (degC), Point: (29.025, 375)Temperatura (degC), Point: (29.61, 375)Temperatura (degC), Point: (29.99, 375)Temperatura (degC), Point: (0, 437.5)Temperatura (degC), Point: (15, 437.5)Temperatura (degC), Point: (28.051, 437.5)Temperatura (degC), Point: (29.025, 437.5)Temperatura (degC), Point: (29.61, 437.5)Temperatura (degC), Point: (29.99, 437.5)Temperatura (degC), Point: (0, 468.75)Temperatura (degC), Point: (15, 468.75)Temperatura (degC), Point: (28.051, 468.75)Temperatura (degC), Point: (29.025, 468.75)Temperatura (degC), Point: (29.61, 468.75)Temperatura (degC), Point: (29.99, 468.75)Temperatura (degC), Point: (0, 492.19)Temperatura (degC), Point: (15, 492.19)Temperatura (degC), Point: (28.051, 492.19)Temperatura (degC), Point: (29.025, 492.19)Temperatura (degC), Point: (29.61, 492.19)Temperatura (degC), Point: (29.99, 492.19)
16.000                   2.2500                   1.5000                   10000                    2500.0                   0.0000                   20.000                   20.000                   20.000                   20.000                   20.079                   20.436                   20.000                   20.000                   20.000                   20.000                   20.079                   20.436                   20.000                   20.000                   20.000                   20.000                   20.079                   20.437                   20.000                   20.000                   20.000                   20.000                   20.080                   20.438                   20.000                   20.000                   20.000                   20.000                   20.080                   20.440                   20.000                   20.000                   20.000                   20.000                   20.081                   20.442                   20.000                   20.000                   20.000                   20.000                   20.082                   20.444                   20.000                   20.000                   20.000                   20.000                   20.083                   20.446                   20.000                   20.000                   20.000                   20.000                   20.081                   20.442                   20.000                   20.000                   20.000                   20.000                   20.071                   20.417
16.000                   2.2500                   1.5000                   10000                    2500.0                   5.0000                   27.096                   50.924                   195.05                   215.86                   228.88                   233.62                   27.043                   50.878                   193.87                   214.39                   227.20                   231.94                   27.052                   50.936                   194.68                   215.54                   228.59                   233.35                   27.102                   51.211                   196.89                   218.00                   231.13                   235.91                   27.073                   51.032                   194.31                   214.81                   227.61                   232.35                   27.095                   51.141                   195.63                   216.50                   229.60                   234.44                   27.116                   51.300                   197.13                   218.17                   231.21                   235.98                   27.120                   51.332                   198.06                   219.49                   232.87                   237.72                   26.943                   50.533                   192.15                   212.44                   225.14                   229.85                   28.001                   52.088                   179.35                   196.65                   207.53                   211.67
16.000                   2.2500                   1.5000                   10000                    2500.0                   10.000                   66.394                   124.46                   327.00                   352.31                   367.90                   373.05                   66.251                   124.33                   329.44                   355.35                   371.02                   376.24                   66.300                   124.47                   330.72                   356.96                   372.79                   378.13                   66.626                   125.23                   331.12                   356.90                   372.39                   377.51                   66.332                   124.34                   326.82                   352.06                   367.31                   372.52                   66.479                   124.90                   333.05                   360.17                   376.84                   382.31                   66.676                   125.56                   335.24                   362.05                   378.37                   383.74                   66.649                   125.59                   336.12                   363.15                   379.53                   384.85                   65.389                   122.40                   324.66                   350.69                   366.65                   371.95                   67.011                   121.99                   296.66                   317.30                   329.96                   334.41
16.000                   2.2500                   1.5000                   10000                    2500.0                   15.000                   134.15                   211.11                   465.08                   498.19                   517.66                   523.64                   134.08                   211.52                   468.84                   502.36                   521.97                   528.01                   134.17                   211.69                   469.49                   503.30                   523.14                   529.11                   134.59                   211.93                   467.37                   500.77                   520.33                   526.33                   133.88                   210.63                   465.43                   499.06                   518.86                   524.89                   134.44                   212.28                   472.65                   506.78                   526.64                   532.68                   134.93                   213.28                   474.90                   509.25                   529.26                   535.35                   134.72                   212.99                   474.29                   508.63                   528.54                   534.55                   131.37                   206.54                   454.61                   486.73                   505.62                   511.43                   131.41                   201.96                   409.16                   433.68                   448.36                   453.14
16.000                   2.2500                   1.5000                   10000                    2500.0                   20.000                   215.07                   302.52                   591.13                   626.05                   644.39                   650.30                   215.27                   303.41                   596.35                   633.31                   653.95                   660.35                   215.41                   303.79                   604.47                   644.50                   667.07                   673.40                   215.41                   302.91                   596.12                   632.84                   653.01                   659.26                   214.47                   301.94                   600.94                   640.55                   662.69                   669.14                   215.73                   304.66                   609.40                   650.03                   672.58                   679.18                   216.45                   305.82                   612.98                   653.84                   676.35                   682.96                   215.78                   304.54                   602.77                   640.27                   660.38                   666.63                   209.65                   294.43                   583.08                   621.52                   643.57                   649.90                   206.76                   284.95                   522.11                   550.81                   567.62                   572.72
16.000                   2.2500                   1.5000                   10000                    2500.0                   25.000                   296.88                   393.22                   722.14                   771.75                   800.14                   807.57                   297.26                   393.91                   722.52                   772.06                   799.99                   807.33                   297.53                   394.76                   728.98                   779.81                   808.25                   815.69                   296.84                   392.96                   722.08                   771.74                   799.69                   807.07                   295.94                   392.37                   725.09                   775.45                   803.68                   811.08                   297.97                   395.89                   733.22                   784.57                   813.34                   820.84                   298.72                   396.99                   736.21                   788.06                   817.07                   824.61                   297.20                   394.20                   726.24                   776.47                   804.79                   812.18                   288.30                   381.33                   701.88                   748.52                   774.83                   781.87                   282.46                   367.54                   627.41                   659.50                   677.97                   683.24
16.000                   2.2500                   1.5000                   10000                    2500.0                   30.000                   376.30                   478.32                   834.60                   889.90                   918.02                   924.93                   376.62                   478.66                   843.36                   905.43                   936.47                   943.69                   377.09                   479.75                   847.26                   908.91                   939.89                   947.09                   375.79                   477.60                   841.64                   902.53                   933.45                   940.80                   374.97                   477.07                   848.49                   913.40                   945.28                   952.58                   377.65                   480.98                   857.76                   922.58                   954.07                   961.29                   378.27                   481.76                   858.94                   923.96                   955.70                   962.90                   375.66                   477.86                   846.25                   908.17                   939.67                   947.23                   364.54                   463.24                   809.05                   867.06                   898.15                   905.60                   356.17                   446.24                   714.75                   748.85                   768.53                   773.87
16.000                   2.2500                   1.5000                   10000                    2500.0                   35.000                   450.31                   553.86                   936.66                   987.26                   1011.0                   1016.0                   450.50                   554.35                   943.82                   994.08                   1017.2                   1022.0                   451.09                   555.36                   944.14                   993.88                   1016.8                   1021.6                   449.49                   553.20                   940.45                   990.95                   1014.4                   1019.3                   448.71                   552.87                   946.67                   997.16                   1020.2                   1025.0                   451.72                   556.69                   952.01                   1001.2                   1023.4                   1027.9                   452.10                   557.03                   949.25                   997.67                   1019.8                   1024.4                   448.65                   552.82                   943.16                   992.68                   1015.5                   1020.2                   436.08                   536.60                   913.50                   968.15                   994.16                   999.90                   425.77                   516.67                   778.86                   814.27                   833.90                   838.92
16.000                   2.2500                   1.5000                   10000                    2500.0                   40.000                   516.68                   618.19                   1001.5                   1041.0                   1055.5                   1057.5                   516.91                   619.02                   1004.1                   1042.6                   1056.5                   1058.4                   517.52                   619.73                   993.05                   1030.2                   1044.7                   1046.9                   515.80                   617.65                   983.79                   1020.5                   1035.7                   1038.4                   515.14                   617.69                   985.79                   1021.2                   1035.7                   1038.1                   518.20                   620.95                   978.49                   1012.0                   1026.6                   1029.2                   518.35                   620.89                   971.71                   1005.0                   1020.1                   1023.1                   514.50                   616.99                   960.96                   992.63                   1007.5                   1010.6                   500.67                   600.50                   962.23                   998.54                   1014.9                   1018.2                   488.42                   576.78                   832.72                   865.96                   883.67                   888.01
16.000                   2.2500                   1.5000                   10000                    2500.0                   45.000                   575.69                   671.94                   1067.1                   1094.0                   1100.5                   1100.2                   576.07                   672.83                   1058.5                   1084.5                   1091.3                   1091.1                   576.60                   672.98                   1032.1                   1058.8                   1066.9                   1067.3                   574.91                   670.81                   1005.2                   1030.5                   1039.9                   1041.0                   574.48                   671.16                   1003.1                   1027.4                   1036.6                   1037.7                   577.35                   673.38                   981.20                   1003.3                   1013.1                   1014.8                   577.31                   672.95                   974.65                   998.37                   1009.5                   1011.7                   573.48                   669.47                   968.11                   992.07                   1003.6                   1005.9                   558.81                   655.06                   998.47                   1026.0                   1036.5                   1038.0                   544.18                   627.05                   877.87                   908.39                   924.40                   928.14
16.000                   2.2500                   1.5000                   10000                    2500.0                   50.000                   626.37                   716.11                   1083.2                   1100.3                   1104.2                   1103.5                   626.82                   716.91                   1075.9                   1094.1                   1098.4                   1097.7                   627.22                   716.36                   1054.0                   1073.8                   1079.2                   1078.8                   625.65                   713.96                   1026.1                   1046.2                   1052.8                   1053.0                   625.47                   714.44                   1022.4                   1042.2                   1048.8                   1049.1                   627.97                   715.47                   993.72                   1011.1                   1018.4                   1019.4                   627.79                   714.51                   981.13                   999.16                   1007.6                   1009.0                   624.30                   711.45                   982.00                   1001.2                   1010.0                   1011.6                   609.89                   700.97                   1040.1                   1062.8                   1069.6                   1069.7                   593.04                   669.41                   915.85                   943.17                   957.27                   960.42
16.000                   2.2500                   1.5000                   10000                    2500.0                   55.000                   668.38                   753.02                   1081.6                   1095.8                   1098.9                   1097.9                   668.83                   753.79                   1080.3                   1095.1                   1098.2                   1097.2                   669.09                   752.52                   1063.4                   1078.9                   1082.8                   1082.1                   667.70                   749.85                   1043.1                   1059.6                   1064.4                   1064.1                   667.73                   750.35                   1040.1                   1056.3                   1061.2                   1060.9                   669.76                   750.48                   1013.8                   1028.6                   1034.1                   1034.3                   669.47                   748.80                   996.37                   1010.8                   1017.0                   1017.7                   666.45                   746.01                   1001.4                   1017.1                   1023.6                   1024.3                   653.32                   739.57                   1068.6                   1085.3                   1089.2                   1088.5                   634.89                   704.83                   943.93                   967.10                   978.96                   981.49
16.000                   2.2500                   1.5000                   10000                    2500.0                   60.000                   701.86                   786.92                   1077.2                   1088.9                   1091.3                   1090.2                   702.25                   787.50                   1078.2                   1090.2                   1092.5                   1091.4                   702.37                   785.71                   1066.6                   1079.0                   1081.8                   1081.0                   701.23                   782.63                   1054.7                   1068.0                   1071.4                   1070.7                   701.38                   783.32                   1053.1                   1066.2                   1069.6                   1068.9                   702.91                   783.01                   1035.8                   1048.6                   1052.4                   1052.0                   702.54                   780.49                   1018.3                   1030.5                   1034.9                   1034.9                   700.10                   777.67                   1023.8                   1037.3                   1041.9                   1041.9                   689.07                   774.10                   1079.1                   1091.1                   1093.5                   1092.4                   670.05                   734.09                   962.99                   982.03                   991.62                   993.51
16.000                   2.2500                   1.5000                   10000                    2500.0                   65.000                   726.69                   820.07                   1073.3                   1082.8                   1084.5                   1083.4                   726.88                   820.53                   1073.7                   1083.0                   1084.7                   1083.6                   726.88                   818.73                   1067.6                   1077.4                   1079.4                   1078.3                   726.05                   815.64                   1061.9                   1072.2                   1074.5                   1073.5                   726.26                   816.62                   1062.1                   1072.3                   1074.5                   1073.5                   727.28                   816.50                   1055.3                   1065.8                   1068.2                   1067.3                   726.89                   813.48                   1044.1                   1055.0                   1057.9                   1057.2                   725.16                   810.44                   1046.0                   1057.5                   1060.6                   1059.9                   716.88                   808.43                   1082.0                   1091.1                   1092.6                   1091.4                   698.82                   759.85                   977.26                   992.80                   1000.4                   1001.7
16.000                   2.2500                   1.5000                   10000                    2500.0                   70.000                   745.47                   851.28                   1072.7                   1080.5                   1081.7                   1080.4                   745.56                   851.89                   1072.0                   1079.4                   1080.6                   1079.4                   745.51                   850.55                   1070.5                   1078.4                   1079.7                   1078.5                   744.75                   848.08                   1068.4                   1076.5                   1077.9                   1076.7                   745.03                   849.30                   1069.7                   1077.6                   1078.9                   1077.7                   745.90                   849.94                   1068.9                   1077.0                   1078.3                   1077.1                   745.44                   847.10                   1065.1                   1073.9                   1075.6                   1074.4                   743.93                   843.92                   1063.7                   1072.6                   1074.4                   1073.3                   737.35                   841.98                   1084.7                   1092.0                   1092.9                   1091.5                   720.92                   786.01                   991.98                   1004.8                   1010.7                   1011.5
16.000                   2.2500                   1.5000                   10000                    2500.0                   75.000                   763.08                   880.15                   1076.1                   1082.4                   1083.1                   1081.8                   763.20                   880.90                   1075.7                   1082.0                   1082.7                   1081.3                   763.11                   880.25                   1075.9                   1082.2                   1082.9                   1081.6                   762.26                   878.57                   1075.3                   1081.7                   1082.4                   1081.1                   762.67                   879.90                   1076.8                   1083.0                   1083.7                   1082.4                   763.69                   881.39                   1077.6                   1083.7                   1084.4                   1083.0                   763.11                   879.26                   1077.3                   1083.8                   1084.5                   1083.2                   761.38                   876.09                   1075.5                   1082.1                   1083.0                   1081.6                   754.91                   872.57                   1087.0                   1093.1                   1093.6                   1092.1                   737.56                   814.18                   1011.6                   1022.6                   1026.9                   1026.9