% Model:              batchmodel_COIL_N_16_COIL_kr_3_COIL_kh_2_FUNZ_freq_2000_FUNZ_I_eff_1000.mph
% Version:            COMSOL 6.0.0.318
% Date:               Feb 8 2022, 23:41
% Table:              Tabella 1 - GRIGLIA_T
% COIL_N                 COIL_kr                  COIL_kh                  FUNZ_freq                FUNZ_I_eff               Time (s)                 Temperatura (degC), Point: (0, 0)Temperatura (degC), Point: (15, 0)Temperatura (degC), Point: (25.641, 0)Temperatura (degC), Point: (27.821, 0)Temperatura (degC), Point: (29.128, 0)Temperatura (degC), Point: (29.99, 0)Temperatura (degC), Point: (0, 62.5)Temperatura (degC), Point: (15, 62.5)Temperatura (degC), Point: (25.641, 62.5)Temperatura (degC), Point: (27.821, 62.5)Temperatura (degC), Point: (29.128, 62.5)Temperatura (degC), Point: (29.99, 62.5)Temperatura (degC), Point: (0, 125)Temperatura (degC), Point: (15, 125)Temperatura (degC), Point: (25.641, 125)Temperatura (degC), Point: (27.821, 125)Temperatura (degC), Point: (29.128, 125)Temperatura (degC), Point: (29.99, 125)Temperatura (degC), Point: (0, 187.5)Temperatura (degC), Point: (15, 187.5)Temperatura (degC), Point: (25.641, 187.5)Temperatura (degC), Point: (27.821, 187.5)Temperatura (degC), Point: (29.128, 187.5)Temperatura (degC), Point: (29.99, 187.5)Temperatura (degC), Point: (0, 250)Temperatura (degC), Point: (15, 250)Temperatura (degC), Point: (25.641, 250)Temperatura (degC), Point: (27.821, 250)Temperatura (degC), Point: (29.128, 250)Temperatura (degC), Point: (29.99, 250)Temperatura (degC), Point: (0, 312.5)Temperatura (degC), Point: (15, 312.5)Temperatura (degC), Point: (25.641, 312.5)Temperatura (degC), Point: (27.821, 312.5)Temperatura (degC), Point: (29.128, 312.5)Temperatura (degC), Point: (29.99, 312.5)Temperatura (degC), Point: (0, 375)Temperatura (degC), Point: (15, 375)Temperatura (degC), Point: (25.641, 375)Temperatura (degC), Point: (27.821, 375)Temperatura (degC), Point: (29.128, 375)Temperatura (degC), Point: (29.99, 375)Temperatura (degC), Point: (0, 437.5)Temperatura (degC), Point: (15, 437.5)Temperatura (degC), Point: (25.641, 437.5)Temperatura (degC), Point: (27.821, 437.5)Temperatura (degC), Point: (29.128, 437.5)Temperatura (degC), Point: (29.99, 437.5)Temperatura (degC), Point: (0, 468.75)Temperatura (degC), Point: (15, 468.75)Temperatura (degC), Point: (25.641, 468.75)Temperatura (degC), Point: (27.821, 468.75)Temperatura (degC), Point: (29.128, 468.75)Temperatura (degC), Point: (29.99, 468.75)Temperatura (degC), Point: (0, 492.19)Temperatura (degC), Point: (15, 492.19)Temperatura (degC), Point: (25.641, 492.19)Temperatura (degC), Point: (27.821, 492.19)Temperatura (degC), Point: (29.128, 492.19)Temperatura (degC), Point: (29.99, 492.19)
16.000                   3.0000                   2.0000                   2000.0                   1000.0                   0.0000                   20.000                   20.000                   20.000                   20.000                   20.000                   20.035                   20.000                   20.000                   20.000                   20.000                   20.000                   20.035                   20.000                   20.000                   20.000                   20.000                   20.000                   20.035                   20.000                   20.000                   20.000                   20.000                   20.000                   20.035                   20.000                   20.000                   20.000                   20.000                   20.000                   20.035                   20.000                   20.000                   20.000                   20.000                   20.000                   20.035                   20.000                   20.000                   20.000                   20.000                   20.000                   20.035                   20.000                   20.000                   20.000                   20.000                   20.000                   20.034                   20.000                   20.000                   20.000                   20.000                   20.000                   20.030                   20.000                   20.000                   20.000                   20.000                   20.000                   20.019
16.000                   3.0000                   2.0000                   2000.0                   1000.0                   5.0000                   21.180                   24.217                   36.910                   41.722                   44.361                   45.643                   21.177                   24.208                   36.967                   41.852                   44.386                   45.626                   21.168                   24.168                   36.832                   41.717                   44.221                   45.454                   21.172                   24.189                   36.917                   41.858                   44.515                   45.814                   21.173                   24.192                   36.931                   41.885                   44.567                   45.871                   21.161                   24.147                   36.655                   41.455                   44.041                   45.291                   21.143                   24.055                   36.210                   40.958                   43.390                   44.622                   20.890                   23.101                   31.934                   35.279                   37.452                   38.596                   20.675                   22.369                   29.128                   31.675                   33.416                   34.354                   20.621                   22.013                   26.289                   27.820                   28.762                   29.282
16.000                   3.0000                   2.0000                   2000.0                   1000.0                   10.000                   26.551                   32.571                   46.512                   50.353                   52.763                   53.949                   26.535                   32.547                   46.517                   50.370                   52.774                   53.958                   26.478                   32.424                   46.254                   50.081                   52.482                   53.666                   26.490                   32.457                   46.337                   50.175                   52.584                   53.770                   26.519                   32.505                   46.406                   50.250                   52.659                   53.844                   26.486                   32.443                   46.294                   50.128                   52.536                   53.723                   26.424                   32.299                   46.006                   49.826                   52.223                   53.407                   25.144                   29.886                   41.368                   44.780                   46.999                   48.127                   23.871                   27.486                   36.483                   39.243                   41.063                   42.018                   23.243                   25.900                   31.498                   33.042                   34.026                   34.566
16.000                   3.0000                   2.0000                   2000.0                   1000.0                   15.000                   33.721                   40.527                   53.782                   57.123                   59.325                   60.417                   33.704                   40.522                   53.885                   57.312                   59.498                   60.583                   33.603                   40.358                   53.624                   57.036                   59.223                   60.313                   33.609                   40.370                   53.600                   56.972                   59.141                   60.213                   33.677                   40.471                   53.780                   57.178                   59.369                   60.449                   33.635                   40.398                   53.618                   56.973                   59.109                   60.168                   33.618                   40.390                   53.797                   57.308                   59.401                   60.439                   31.349                   37.236                   49.601                   53.036                   55.200                   56.282                   28.681                   33.269                   43.202                   46.066                   47.928                   48.892                   27.070                   30.308                   36.523                   38.164                   39.167                   39.701
16.000                   3.0000                   2.0000                   2000.0                   1000.0                   20.000                   41.435                   48.376                   61.846                   65.475                   67.820                   68.987                   41.415                   48.356                   61.805                   65.428                   67.773                   68.939                   41.297                   48.209                   61.654                   65.285                   67.629                   68.797                   41.290                   48.200                   61.630                   65.256                   67.594                   68.758                   41.384                   48.318                   61.787                   65.419                   67.764                   68.930                   41.344                   48.249                   61.649                   65.261                   67.590                   68.749                   41.400                   48.342                   61.807                   65.426                   67.763                   68.922                   38.332                   44.648                   57.349                   60.852                   63.103                   64.232                   34.240                   39.250                   49.548                   52.441                   54.311                   55.275                   31.503                   34.936                   41.235                   42.843                   43.846                   44.388
16.000                   3.0000                   2.0000                   2000.0                   1000.0                   25.000                   49.386                   56.422                   70.073                   73.788                   76.179                   77.364                   49.359                   56.392                   70.009                   73.708                   76.101                   77.287                   49.248                   56.266                   69.897                   73.606                   76.000                   77.186                   49.233                   56.247                   69.868                   73.577                   75.968                   77.154                   49.330                   56.361                   70.007                   73.719                   76.113                   77.300                   49.301                   56.308                   69.901                   73.602                   75.989                   77.173                   49.341                   56.379                   69.994                   73.675                   76.074                   77.260                   45.537                   52.031                   64.922                   68.464                   70.746                   71.885                   40.170                   45.346                   55.808                   58.722                   60.603                   61.568                   36.480                   39.989                   46.335                   47.940                   48.945                   49.487
16.000                   3.0000                   2.0000                   2000.0                   1000.0                   30.000                   57.381                   64.505                   78.331                   82.094                   84.512                   85.704                   57.347                   64.467                   78.267                   82.019                   84.440                   85.633                   57.248                   64.362                   78.181                   81.942                   84.364                   85.557                   57.226                   64.335                   78.144                   81.906                   84.327                   85.521                   57.320                   64.442                   78.267                   82.031                   84.454                   85.649                   57.304                   64.407                   78.196                   81.953                   84.373                   85.566                   57.312                   64.431                   78.215                   81.949                   84.376                   85.571                   52.785                   59.407                   72.461                   76.038                   78.338                   79.482                   46.171                   51.464                   62.051                   64.985                   66.877                   67.844                   41.562                   45.123                   51.508                   53.117                   54.123                   54.664
16.000                   3.0000                   2.0000                   2000.0                   1000.0                   35.000                   65.376                   72.587                   86.589                   90.400                   92.845                   94.043                   65.335                   72.541                   86.525                   90.331                   92.778                   93.978                   65.248                   72.459                   86.465                   90.277                   92.728                   93.928                   65.218                   72.424                   86.421                   90.235                   92.686                   93.888                   65.311                   72.522                   86.527                   90.343                   92.795                   93.998                   65.308                   72.505                   86.491                   90.305                   92.757                   93.960                   65.283                   72.484                   86.435                   90.223                   92.679                   93.881                   60.032                   66.784                   80.001                   83.611                   85.931                   87.079                   52.172                   57.582                   68.294                   71.248                   73.151                   74.120                   46.643                   50.257                   56.681                   58.293                   59.301                   59.842
16.000                   3.0000                   2.0000                   2000.0                   1000.0                   40.000                   73.593                   80.887                   95.062                   98.921                   101.40                   102.60                   73.548                   80.836                   94.995                   98.851                   101.33                   102.54                   73.473                   80.770                   94.954                   98.816                   101.30                   102.51                   73.439                   80.731                   94.904                   98.768                   101.25                   102.46                   73.538                   80.836                   95.019                   98.885                   101.37                   102.58                   73.533                   80.817                   94.983                   98.848                   101.33                   102.54                   73.407                   80.687                   94.805                   98.643                   101.13                   102.34                   67.344                   74.178                   87.533                   91.178                   93.521                   94.674                   58.389                   63.865                   74.670                   77.644                   79.560                   80.531                   52.142                   55.785                   62.236                   63.852                   64.861                   65.401
16.000                   3.0000                   2.0000                   2000.0                   1000.0                   45.000                   81.819                   89.196                   103.54                   107.45                   109.96                   111.17                   81.769                   89.141                   103.47                   107.38                   109.89                   111.10                   81.706                   89.090                   103.45                   107.36                   109.88                   111.09                   81.669                   89.046                   103.40                   107.31                   109.82                   111.04                   81.774                   89.159                   103.52                   107.44                   109.95                   111.17                   81.767                   89.138                   103.48                   107.40                   109.91                   111.13                   81.536                   88.896                   103.18                   107.07                   109.58                   110.80                   74.658                   81.574                   95.065                   98.746                   101.11                   102.27                   64.614                   70.156                   81.051                   84.046                   85.974                   86.948                   57.659                   61.329                   67.807                   69.426                   70.437                   70.976
16.000                   3.0000                   2.0000                   2000.0                   1000.0                   50.000                   90.045                   97.505                   112.02                   115.98                   118.52                   119.74                   89.991                   97.445                   111.95                   115.91                   118.45                   119.67                   89.940                   97.410                   111.95                   115.91                   118.45                   119.68                   89.898                   97.362                   111.89                   115.85                   118.40                   119.62                   90.010                   97.482                   112.02                   115.99                   118.53                   119.76                   90.001                   97.459                   111.98                   115.95                   118.49                   119.72                   89.666                   97.106                   111.56                   115.49                   118.04                   119.26                   81.972                   88.969                   102.60                   106.31                   108.70                   109.86                   70.840                   76.446                   87.432                   90.447                   92.388                   93.365                   63.176                   66.874                   73.377                   75.000                   76.013                   76.551
16.000                   3.0000                   2.0000                   2000.0                   1000.0                   55.000                   98.271                   105.81                   120.51                   124.51                   127.08                   128.31                   98.212                   105.75                   120.43                   124.44                   127.01                   128.24                   98.174                   105.73                   120.45                   124.46                   127.03                   128.27                   98.128                   105.68                   120.38                   124.39                   126.97                   128.20                   98.247                   105.81                   120.52                   124.54                   127.12                   128.35                   98.236                   105.78                   120.48                   124.50                   127.08                   128.31                   97.796                   105.31                   119.93                   123.92                   126.49                   127.72                   89.286                   96.364                   110.13                   113.88                   116.29                   117.46                   77.066                   82.737                   93.813                   96.849                   98.803                   99.782                   68.692                   72.418                   78.948                   80.575                   81.588                   82.126
16.000                   3.0000                   2.0000                   2000.0                   1000.0                   60.000                   106.50                   114.12                   128.99                   133.04                   135.64                   136.88                   106.43                   114.05                   128.91                   132.97                   135.57                   136.81                   106.41                   114.05                   128.94                   133.01                   135.61                   136.85                   106.36                   113.99                   128.87                   132.94                   135.54                   136.78                   106.48                   114.13                   129.03                   133.09                   135.70                   136.94                   106.47                   114.10                   128.98                   133.05                   135.66                   136.91                   105.93                   113.52                   128.31                   132.34                   134.94                   136.19                   96.600                   103.76                   117.66                   121.45                   123.88                   125.05                   83.292                   89.027                   100.19                   103.25                   105.22                   106.20                   74.209                   77.963                   84.519                   86.149                   87.164                   87.701
16.000                   3.0000                   2.0000                   2000.0                   1000.0                   65.000                   114.91                   122.63                   137.68                   141.78                   144.41                   145.66                   114.85                   122.56                   137.60                   141.71                   144.34                   145.59                   114.83                   122.56                   137.64                   141.75                   144.39                   145.64                   114.78                   122.51                   137.57                   141.68                   144.32                   145.57                   114.92                   122.66                   137.74                   141.86                   144.49                   145.75                   114.89                   122.61                   137.68                   141.80                   144.44                   145.69                   114.18                   121.87                   136.83                   140.92                   143.55                   144.80                   103.96                   111.19                   125.23                   129.05                   131.51                   132.69                   89.714                   95.484                   106.73                   109.81                   111.79                   112.78                   80.114                   83.878                   90.452                   92.086                   93.103                   93.639
16.000                   3.0000                   2.0000                   2000.0                   1000.0                   70.000                   123.34                   131.15                   146.38                   150.53                   153.20                   154.45                   123.28                   131.08                   146.30                   150.46                   153.13                   154.38                   123.26                   131.08                   146.34                   150.50                   153.17                   154.43                   123.22                   131.03                   146.28                   150.44                   153.11                   154.37                   123.36                   131.19                   146.46                   150.63                   153.30                   154.56                   123.32                   131.14                   146.39                   150.56                   153.23                   154.49                   122.44                   130.21                   145.36                   149.50                   152.16                   153.42                   111.32                   118.62                   132.79                   136.66                   139.14                   140.33                   96.144                   101.95                   113.27                   116.38                   118.38                   119.37                   86.034                   89.809                   96.399                   98.038                   99.057                   99.592
16.000                   3.0000                   2.0000                   2000.0                   1000.0                   75.000                   131.77                   139.66                   155.08                   159.28                   161.98                   163.24                   131.70                   139.59                   155.00                   159.21                   161.91                   163.17                   131.69                   139.60                   155.04                   159.26                   161.96                   163.22                   131.65                   139.56                   154.98                   159.20                   161.90                   163.16                   131.80                   139.73                   155.18                   159.40                   162.10                   163.37                   131.75                   139.66                   155.10                   159.32                   162.02                   163.29                   130.70                   138.56                   153.90                   158.09                   160.78                   162.04                   118.69                   126.04                   140.36                   144.27                   146.77                   147.97                   102.57                   108.41                   119.82                   122.95                   124.96                   125.95                   91.955                   95.740                   102.35                   103.99                   105.01                   105.55