% Model:              batchmodel_COIL_N_16_COIL_kr_1.5_COIL_kh_2_FUNZ_freq_10000_FUNZ_I_eff_4000.mph
% Version:            COMSOL 6.0.0.318
% Date:               Feb 8 2022, 22:08
% Table:              Tabella 1 - GRIGLIA_T
% COIL_N                 COIL_kr                  COIL_kh                  FUNZ_freq                FUNZ_I_eff               Time (s)                 Temperatura (degC), Point: (0, 0)Temperatura (degC), Point: (15, 0)Temperatura (degC), Point: (28.051, 0)Temperatura (degC), Point: (29.025, 0)Temperatura (degC), Point: (29.61, 0)Temperatura (degC), Point: (29.99, 0)Temperatura (degC), Point: (0, 62.5)Temperatura (degC), Point: (15, 62.5)Temperatura (degC), Point: (28.051, 62.5)Temperatura (degC), Point: (29.025, 62.5)Temperatura (degC), Point: (29.61, 62.5)Temperatura (degC), Point: (29.99, 62.5)Temperatura (degC), Point: (0, 125)Temperatura (degC), Point: (15, 125)Temperatura (degC), Point: (28.051, 125)Temperatura (degC), Point: (29.025, 125)Temperatura (degC), Point: (29.61, 125)Temperatura (degC), Point: (29.99, 125)Temperatura (degC), Point: (0, 187.5)Temperatura (degC), Point: (15, 187.5)Temperatura (degC), Point: (28.051, 187.5)Temperatura (degC), Point: (29.025, 187.5)Temperatura (degC), Point: (29.61, 187.5)Temperatura (degC), Point: (29.99, 187.5)Temperatura (degC), Point: (0, 250)Temperatura (degC), Point: (15, 250)Temperatura (degC), Point: (28.051, 250)Temperatura (degC), Point: (29.025, 250)Temperatura (degC), Point: (29.61, 250)Temperatura (degC), Point: (29.99, 250)Temperatura (degC), Point: (0, 312.5)Temperatura (degC), Point: (15, 312.5)Temperatura (degC), Point: (28.051, 312.5)Temperatura (degC), Point: (29.025, 312.5)Temperatura (degC), Point: (29.61, 312.5)Temperatura (degC), Point: (29.99, 312.5)Temperatura (degC), Point: (0, 375)Temperatura (degC), Point: (15, 375)Temperatura (degC), Point: (28.051, 375)Temperatura (degC), Point: (29.025, 375)Temperatura (degC), Point: (29.61, 375)Temperatura (degC), Point: (29.99, 375)Temperatura (degC), Point: (0, 437.5)Temperatura (degC), Point: (15, 437.5)Temperatura (degC), Point: (28.051, 437.5)Temperatura (degC), Point: (29.025, 437.5)Temperatura (degC), Point: (29.61, 437.5)Temperatura (degC), Point: (29.99, 437.5)Temperatura (degC), Point: (0, 468.75)Temperatura (degC), Point: (15, 468.75)Temperatura (degC), Point: (28.051, 468.75)Temperatura (degC), Point: (29.025, 468.75)Temperatura (degC), Point: (29.61, 468.75)Temperatura (degC), Point: (29.99, 468.75)Temperatura (degC), Point: (0, 492.19)Temperatura (degC), Point: (15, 492.19)Temperatura (degC), Point: (28.051, 492.19)Temperatura (degC), Point: (29.025, 492.19)Temperatura (degC), Point: (29.61, 492.19)Temperatura (degC), Point: (29.99, 492.19)
16.000                   1.5000                   2.0000                   10000                    4000.0                   0.0000                   20.000                   20.000                   20.000                   20.000                   20.185                   20.711                   20.000                   20.000                   20.000                   20.000                   20.186                   20.712                   20.000                   20.000                   20.000                   20.000                   20.188                   20.717                   20.000                   20.000                   20.000                   20.000                   20.192                   20.726                   20.000                   20.000                   20.000                   20.000                   20.197                   20.737                   20.000                   20.000                   20.000                   20.000                   20.203                   20.751                   20.000                   20.000                   20.000                   20.000                   20.210                   20.767                   20.000                   20.000                   20.000                   20.000                   20.218                   20.783                   20.000                   20.000                   20.000                   20.001                   20.265                   20.886                   20.000                   20.000                   20.000                   20.001                   20.254                   20.864
16.000                   1.5000                   2.0000                   10000                    4000.0                   5.0000                   33.443                   88.071                   450.58                   515.54                   552.15                   562.53                   33.192                   87.463                   445.82                   510.27                   546.64                   557.00                   33.261                   87.839                   449.65                   514.90                   551.71                   562.12                   33.285                   88.016                   451.81                   517.63                   554.59                   565.03                   33.342                   88.391                   455.90                   522.68                   560.15                   570.72                   33.401                   88.734                   456.90                   523.80                   561.33                   571.96                   33.627                   90.028                   466.81                   535.66                   574.17                   584.96                   33.745                   90.688                   472.51                   542.36                   581.31                   592.20                   34.476                   94.431                   502.92                   580.24                   622.80                   634.43                   38.314                   101.19                   476.40                   543.52                   581.21                   591.74
16.000                   1.5000                   2.0000                   10000                    4000.0                   10.000                   122.82                   246.75                   768.80                   860.71                   905.92                   916.67                   122.10                   245.60                   762.41                   853.07                   898.10                   908.89                   122.55                   246.72                   769.78                   862.22                   907.61                   918.39                   122.52                   246.82                   773.10                   866.45                   912.06                   922.83                   122.81                   247.40                   776.41                   871.10                   917.14                   927.97                   122.75                   247.42                   779.35                   874.95                   921.20                   932.03                   123.87                   249.85                   790.41                   886.69                   932.50                   943.11                   124.28                   250.66                   795.43                   892.71                   938.63                   949.21                   126.98                   257.26                   880.95                   988.66                   1030.3                   1038.4                   140.21                   269.47                   774.60                   858.83                   900.22                   910.07
16.000                   1.5000                   2.0000                   10000                    4000.0                   15.000                   249.91                   390.54                   906.26                   978.40                   1010.9                   1017.9                   249.02                   389.19                   899.94                   972.01                   1004.7                   1011.8                   249.70                   390.57                   906.16                   978.17                   1010.6                   1017.6                   249.73                   390.80                   907.32                   979.27                   1011.7                   1018.6                   250.01                   391.48                   913.06                   985.22                   1017.4                   1024.2                   249.97                   391.69                   911.23                   982.54                   1014.5                   1021.3                   251.57                   394.27                   900.57                   967.70                   998.42                   1005.1                   252.04                   395.19                   900.76                   966.77                   996.99                   1003.6                   257.43                   413.85                   1117.2                   1158.4                   1168.0                   1167.9                   266.86                   409.70                   856.78                   913.37                   940.86                   947.20
16.000                   1.5000                   2.0000                   10000                    4000.0                   20.000                   363.03                   498.06                   943.01                   990.88                   1012.8                   1017.3                   362.15                   496.79                   940.90                   989.38                   1011.7                   1016.3                   362.96                   498.37                   943.73                   991.08                   1012.7                   1017.2                   363.15                   498.87                   944.98                   991.39                   1012.5                   1016.9                   363.56                   500.18                   952.10                   996.80                   1016.6                   1020.6                   363.82                   501.01                   956.19                   1001.1                   1020.4                   1024.2                   365.80                   504.01                   960.10                   1004.5                   1023.1                   1026.7                   366.45                   505.57                   982.94                   1028.5                   1045.5                   1048.2                   375.75                   534.01                   1148.6                   1170.1                   1174.2                   1173.1                   378.61                   515.63                   929.67                   969.91                   988.39                   992.37
16.000                   1.5000                   2.0000                   10000                    4000.0                   25.000                   456.77                   581.18                   949.17                   980.20                   994.81                   997.85                   455.95                   580.13                   950.04                   981.42                   996.20                   999.28                   456.86                   582.04                   958.15                   988.70                   1002.7                   1005.6                   457.24                   583.12                   973.14                   1004.7                   1018.0                   1020.4                   457.89                   585.43                   1001.6                   1034.8                   1046.6                   1048.1                   458.46                   586.97                   1018.0                   1051.1                   1061.9                   1063.0                   460.61                   590.44                   1038.6                   1071.0                   1080.5                   1081.0                   461.51                   593.06                   1070.6                   1099.6                   1107.0                   1106.9                   473.41                   624.18                   1148.8                   1162.9                   1165.0                   1163.5                   471.16                   599.40                   1021.4                   1052.7                   1062.8                   1063.6
16.000                   1.5000                   2.0000                   10000                    4000.0                   30.000                   535.32                   648.24                   977.81                   999.56                   1009.0                   1010.6                   534.57                   647.39                   980.13                   1002.4                   1012.0                   1013.6                   535.57                   649.56                   995.51                   1018.7                   1027.8                   1029.0                   536.10                   651.16                   1018.8                   1043.5                   1051.7                   1052.4                   537.02                   654.24                   1050.5                   1074.5                   1081.1                   1081.0                   537.82                   656.31                   1067.8                   1090.3                   1095.9                   1095.5                   540.00                   660.13                   1086.7                   1107.0                   1111.5                   1110.8                   541.18                   663.55                   1106.0                   1123.7                   1127.3                   1126.3                   554.44                   694.35                   1150.2                   1160.4                   1161.5                   1159.8                   549.06                   668.47                   1099.3                   1118.6                   1122.7                   1121.8
16.000                   1.5000                   2.0000                   10000                    4000.0                   35.000                   602.54                   704.37                   1029.7                   1046.9                   1052.3                   1052.3                   601.87                   703.77                   1031.0                   1048.6                   1054.0                   1054.0                   602.88                   706.04                   1045.3                   1063.2                   1068.2                   1067.9                   603.51                   707.90                   1062.3                   1079.6                   1083.9                   1083.3                   604.60                   711.37                   1081.7                   1097.3                   1100.7                   1099.8                   605.52                   713.81                   1093.3                   1107.8                   1110.6                   1109.6                   607.58                   717.74                   1106.0                   1119.2                   1121.5                   1120.3                   608.94                   721.63                   1118.7                   1130.5                   1132.3                   1130.9                   622.28                   752.31                   1154.1                   1161.8                   1162.1                   1160.3                   615.69                   728.78                   1145.0                   1155.4                   1156.5                   1154.8
16.000                   1.5000                   2.0000                   10000                    4000.0                   40.000                   657.31                   751.81                   1081.3                   1093.5                   1095.7                   1094.5                   656.72                   751.54                   1081.2                   1093.4                   1095.6                   1094.5                   657.67                   753.85                   1086.9                   1098.3                   1100.3                   1099.0                   658.32                   755.95                   1093.3                   1104.1                   1105.8                   1104.5                   659.44                   759.57                   1101.7                   1111.6                   1113.0                   1111.7                   660.39                   762.48                   1108.5                   1118.0                   1119.2                   1117.7                   662.20                   766.68                   1116.4                   1125.3                   1126.3                   1124.7                   663.60                   771.34                   1124.8                   1133.1                   1133.8                   1132.2                   675.96                   805.20                   1160.2                   1166.1                   1166.0                   1164.1                   670.08                   787.55                   1177.4                   1183.9                   1183.8                   1181.8
16.000                   1.5000                   2.0000                   10000                    4000.0                   45.000                   699.90                   800.15                   1108.9                   1116.3                   1116.9                   1115.3                   699.43                   799.48                   1108.9                   1116.3                   1116.9                   1115.3                   700.24                   802.04                   1111.3                   1118.5                   1118.9                   1117.3                   700.83                   804.35                   1114.3                   1121.2                   1121.6                   1120.0                   701.84                   808.31                   1118.7                   1125.3                   1125.6                   1123.9                   702.70                   811.59                   1123.4                   1129.8                   1130.0                   1128.3                   704.16                   816.41                   1128.8                   1135.0                   1135.1                   1133.3                   705.39                   821.55                   1134.7                   1140.6                   1140.6                   1138.8                   715.75                   857.49                   1169.4                   1174.1                   1173.6                   1171.6                   712.02                   855.31                   1206.3                   1210.9                   1210.1                   1207.9
16.000                   1.5000                   2.0000                   10000                    4000.0                   50.000                   733.59                   852.51                   1126.9                   1131.4                   1131.0                   1129.3                   733.12                   851.52                   1127.0                   1131.6                   1131.2                   1129.4                   733.83                   854.01                   1128.8                   1133.4                   1133.0                   1131.2                   734.38                   856.24                   1131.2                   1135.7                   1135.3                   1133.4                   735.31                   859.97                   1134.5                   1138.9                   1138.5                   1136.6                   736.13                   863.28                   1138.3                   1142.7                   1142.2                   1140.3                   737.37                   867.94                   1142.8                   1147.1                   1146.5                   1144.6                   738.51                   872.73                   1147.6                   1151.8                   1151.2                   1149.2                   748.10                   907.44                   1181.6                   1185.4                   1184.5                   1182.4                   748.40                   924.96                   1234.6                   1238.0                   1236.8                   1234.4
16.000                   1.5000                   2.0000                   10000                    4000.0                   55.000                   764.36                   904.95                   1142.9                   1145.9                   1144.9                   1142.9                   763.74                   904.07                   1143.1                   1146.0                   1145.1                   1143.1                   764.61                   906.19                   1144.7                   1147.6                   1146.7                   1144.7                   765.34                   908.12                   1146.8                   1149.8                   1148.8                   1146.8                   766.56                   911.27                   1149.8                   1152.7                   1151.7                   1149.7                   767.67                   914.31                   1153.3                   1156.3                   1155.3                   1153.3                   769.30                   918.39                   1157.5                   1160.4                   1159.4                   1157.4                   770.89                   922.53                   1161.9                   1164.8                   1163.8                   1161.7                   785.05                   955.06                   1196.8                   1199.8                   1198.6                   1196.4                   793.06                   989.14                   1263.4                   1266.0                   1264.4                   1261.9
16.000                   1.5000                   2.0000                   10000                    4000.0                   60.000                   809.46                   953.39                   1158.6                   1160.6                   1159.3                   1157.2                   808.81                   952.73                   1158.7                   1160.8                   1159.5                   1157.4                   809.89                   954.47                   1160.4                   1162.4                   1161.1                   1159.0                   810.80                   956.11                   1162.7                   1164.7                   1163.4                   1161.2                   812.34                   958.76                   1165.8                   1167.8                   1166.5                   1164.3                   813.80                   961.47                   1169.5                   1171.6                   1170.2                   1168.1                   815.88                   964.97                   1173.8                   1175.9                   1174.5                   1172.4                   817.96                   968.58                   1178.4                   1180.5                   1179.1                   1177.0                   837.76                   1000.1                   1216.1                   1218.5                   1217.0                   1214.7                   858.01                   1046.9                   1292.6                   1294.5                   1292.7                   1289.9
16.000                   1.5000                   2.0000                   10000                    4000.0                   65.000                   863.46                   999.54                   1175.2                   1176.2                   1174.6                   1172.3                   862.88                   999.01                   1175.3                   1176.4                   1174.7                   1172.5                   864.11                   1000.5                   1177.0                   1178.1                   1176.4                   1174.1                   865.14                   1001.9                   1179.3                   1180.4                   1178.7                   1176.4                   866.92                   1004.2                   1182.4                   1183.6                   1181.9                   1179.6                   868.64                   1006.7                   1186.2                   1187.5                   1185.8                   1183.5                   871.01                   1009.8                   1190.7                   1191.9                   1190.3                   1188.0                   873.43                   1013.0                   1195.4                   1196.8                   1195.1                   1192.8                   897.80                   1044.6                   1236.6                   1238.3                   1236.7                   1234.2                   931.47                   1102.8                   1321.8                   1323.1                   1320.9                   1318.0
16.000                   1.5000                   2.0000                   10000                    4000.0                   70.000                   919.37                   1041.3                   1194.2                   1194.5                   1192.5                   1190.1                   918.86                   1040.9                   1194.3                   1194.7                   1192.7                   1190.3                   920.07                   1042.2                   1196.0                   1196.3                   1194.4                   1192.0                   921.07                   1043.5                   1198.3                   1198.7                   1196.7                   1194.3                   922.82                   1045.6                   1201.5                   1202.0                   1200.0                   1197.6                   924.55                   1047.8                   1205.4                   1205.9                   1204.0                   1201.6                   926.88                   1050.6                   1209.9                   1210.5                   1208.6                   1206.2                   929.37                   1053.7                   1214.8                   1215.6                   1213.6                   1211.2                   956.46                   1086.4                   1259.2                   1260.3                   1258.4                   1255.8                   1000.0                   1152.4                   1348.5                   1349.1                   1346.5                   1343.5
16.000                   1.5000                   2.0000                   10000                    4000.0                   75.000                   975.90                   1081.7                   1213.9                   1213.6                   1211.3                   1208.8                   975.46                   1081.3                   1214.0                   1213.7                   1211.5                   1209.0                   976.57                   1082.5                   1215.7                   1215.4                   1213.2                   1210.7                   977.51                   1083.7                   1218.0                   1217.8                   1215.6                   1213.1                   979.15                   1085.6                   1221.3                   1221.2                   1219.0                   1216.4                   980.80                   1087.7                   1225.2                   1225.2                   1223.0                   1220.5                   982.97                   1090.3                   1229.8                   1229.9                   1227.7                   1225.2                   985.45                   1093.3                   1235.0                   1235.2                   1233.0                   1230.4                   1014.7                   1127.3                   1282.4                   1283.0                   1280.8                   1278.0                   1067.1                   1199.8                   1374.3                   1374.1                   1371.3                   1368.1
