% Model:              batchmodel_COIL_N_16_COIL_kr_1.5_COIL_kh_2_FUNZ_freq_2000_FUNZ_I_eff_2500.mph
% Version:            COMSOL 6.0.0.318
% Date:               Feb 8 2022, 21:44
% Table:              Tabella 1 - GRIGLIA_T
% COIL_N                 COIL_kr                  COIL_kh                  FUNZ_freq                FUNZ_I_eff               Time (s)                 Temperatura (degC), Point: (0, 0)Temperatura (degC), Point: (15, 0)Temperatura (degC), Point: (25.641, 0)Temperatura (degC), Point: (27.821, 0)Temperatura (degC), Point: (29.128, 0)Temperatura (degC), Point: (29.99, 0)Temperatura (degC), Point: (0, 62.5)Temperatura (degC), Point: (15, 62.5)Temperatura (degC), Point: (25.641, 62.5)Temperatura (degC), Point: (27.821, 62.5)Temperatura (degC), Point: (29.128, 62.5)Temperatura (degC), Point: (29.99, 62.5)Temperatura (degC), Point: (0, 125)Temperatura (degC), Point: (15, 125)Temperatura (degC), Point: (25.641, 125)Temperatura (degC), Point: (27.821, 125)Temperatura (degC), Point: (29.128, 125)Temperatura (degC), Point: (29.99, 125)Temperatura (degC), Point: (0, 187.5)Temperatura (degC), Point: (15, 187.5)Temperatura (degC), Point: (25.641, 187.5)Temperatura (degC), Point: (27.821, 187.5)Temperatura (degC), Point: (29.128, 187.5)Temperatura (degC), Point: (29.99, 187.5)Temperatura (degC), Point: (0, 250)Temperatura (degC), Point: (15, 250)Temperatura (degC), Point: (25.641, 250)Temperatura (degC), Point: (27.821, 250)Temperatura (degC), Point: (29.128, 250)Temperatura (degC), Point: (29.99, 250)Temperatura (degC), Point: (0, 312.5)Temperatura (degC), Point: (15, 312.5)Temperatura (degC), Point: (25.641, 312.5)Temperatura (degC), Point: (27.821, 312.5)Temperatura (degC), Point: (29.128, 312.5)Temperatura (degC), Point: (29.99, 312.5)Temperatura (degC), Point: (0, 375)Temperatura (degC), Point: (15, 375)Temperatura (degC), Point: (25.641, 375)Temperatura (degC), Point: (27.821, 375)Temperatura (degC), Point: (29.128, 375)Temperatura (degC), Point: (29.99, 375)Temperatura (degC), Point: (0, 437.5)Temperatura (degC), Point: (15, 437.5)Temperatura (degC), Point: (25.641, 437.5)Temperatura (degC), Point: (27.821, 437.5)Temperatura (degC), Point: (29.128, 437.5)Temperatura (degC), Point: (29.99, 437.5)Temperatura (degC), Point: (0, 468.75)Temperatura (degC), Point: (15, 468.75)Temperatura (degC), Point: (25.641, 468.75)Temperatura (degC), Point: (27.821, 468.75)Temperatura (degC), Point: (29.128, 468.75)Temperatura (degC), Point: (29.99, 468.75)Temperatura (degC), Point: (0, 492.19)Temperatura (degC), Point: (15, 492.19)Temperatura (degC), Point: (25.641, 492.19)Temperatura (degC), Point: (27.821, 492.19)Temperatura (degC), Point: (29.128, 492.19)Temperatura (degC), Point: (29.99, 492.19)
16.000                   1.5000                   2.0000                   2000.0                   2500.0                   0.0000                   20.000                   20.000                   20.000                   20.000                   20.013                   20.099                   20.000                   20.000                   20.000                   20.000                   20.013                   20.099                   20.000                   20.000                   20.000                   20.000                   20.013                   20.099                   20.000                   20.000                   20.000                   20.000                   20.013                   20.100                   20.000                   20.000                   20.000                   20.000                   20.013                   20.100                   20.000                   20.000                   20.000                   20.000                   20.013                   20.101                   20.000                   20.000                   20.000                   20.000                   20.014                   20.102                   20.000                   20.000                   20.000                   20.000                   20.014                   20.103                   20.000                   20.000                   20.000                   20.000                   20.017                   20.111                   20.000                   20.000                   20.000                   20.000                   20.011                   20.093
16.000                   1.5000                   2.0000                   2000.0                   2500.0                   5.0000                   23.078                   33.282                   73.962                   88.701                   98.459                   102.21                   23.112                   33.428                   74.588                   89.592                   99.313                   103.23                   23.092                   33.373                   74.677                   89.671                   99.436                   103.38                   23.090                   33.362                   74.392                   89.218                   98.791                   102.74                   23.125                   33.531                   75.053                   90.022                   99.762                   103.72                   23.122                   33.537                   75.400                   90.696                   100.66                   104.81                   23.141                   33.600                   75.219                   90.315                   100.05                   104.07                   23.152                   33.678                   75.828                   91.270                   101.42                   105.57                   23.203                   34.076                   78.290                   94.814                   105.78                   110.20                   23.583                   33.591                   69.579                   82.411                   90.859                   94.463
16.000                   1.5000                   2.0000                   2000.0                   2500.0                   10.000                   40.032                   61.308                   113.39                   129.56                   140.15                   144.41                   40.311                   61.944                   114.87                   131.30                   141.82                   146.03                   40.094                   61.444                   113.78                   130.09                   140.62                   144.83                   39.985                   61.211                   113.27                   129.61                   140.23                   144.45                   40.246                   61.800                   114.68                   131.23                   141.97                   146.24                   40.367                   62.206                   115.91                   132.65                   143.44                   147.71                   40.389                   62.239                   115.94                   132.83                   143.76                   148.08                   40.547                   62.716                   117.42                   134.58                   145.64                   149.99                   40.386                   62.815                   119.18                   137.18                   148.89                   153.47                   39.090                   58.952                   106.10                   120.29                   129.38                   133.03
16.000                   1.5000                   2.0000                   2000.0                   2500.0                   15.000                   69.699                   99.368                   166.24                   185.29                   197.14                   201.77                   70.171                   100.05                   167.04                   186.25                   197.73                   202.18                   69.771                   99.538                   167.01                   186.14                   197.65                   202.05                   69.528                   99.219                   166.46                   185.89                   197.74                   202.18                   70.072                   100.09                   168.01                   187.48                   199.34                   203.89                   70.305                   100.47                   168.57                   188.18                   200.08                   204.55                   70.224                   100.38                   168.66                   188.68                   200.85                   205.38                   70.431                   100.79                   169.67                   189.74                   202.03                   206.58                   69.686                   100.31                   170.82                   191.57                   204.32                   209.11                   68.968                   96.945                   154.18                   169.97                   179.30                   182.96
16.000                   1.5000                   2.0000                   2000.0                   2500.0                   20.000                   106.22                   140.56                   212.50                   232.66                   245.29                   249.89                   106.74                   141.17                   213.02                   233.19                   245.77                   250.34                   106.22                   140.60                   212.71                   232.99                   245.61                   250.17                   105.92                   140.30                   212.48                   232.88                   245.60                   250.18                   106.70                   141.38                   214.18                   234.69                   247.47                   252.10                   106.96                   141.69                   214.60                   235.24                   248.12                   252.77                   106.82                   141.63                   214.99                   235.86                   248.87                   253.55                   106.85                   141.79                   215.67                   236.73                   249.90                   254.61                   105.44                   140.63                   216.41                   238.35                   252.11                   257.02                   104.02                   135.22                   196.18                   212.82                   223.20                   227.12
16.000                   1.5000                   2.0000                   2000.0                   2500.0                   25.000                   144.96                   181.74                   257.19                   278.65                   292.08                   296.78                   145.43                   182.22                   257.54                   279.03                   292.48                   297.19                   144.86                   181.63                   257.03                   278.55                   292.03                   296.75                   144.56                   181.38                   256.98                   278.59                   292.13                   296.87                   145.47                   182.53                   258.69                   280.43                   294.06                   298.82                   145.75                   182.86                   259.22                   281.12                   294.85                   299.63                   145.60                   182.84                   259.65                   281.72                   295.57                   300.39                   145.38                   182.71                   259.89                   282.10                   296.01                   300.86                   143.09                   180.56                   259.60                   282.80                   297.41                   302.47                   139.46                   172.10                   235.40                   252.85                   263.85                   267.89
16.000                   1.5000                   2.0000                   2000.0                   2500.0                   30.000                   184.51                   223.33                   303.85                   326.97                   341.37                   346.22                   184.86                   223.61                   303.76                   326.94                   341.31                   346.17                   184.37                   223.16                   303.36                   326.54                   340.97                   345.84                   184.06                   222.90                   303.36                   326.67                   341.19                   346.09                   185.01                   224.05                   305.01                   328.43                   343.03                   347.94                   185.31                   224.41                   305.60                   329.19                   343.88                   348.83                   185.14                   224.35                   305.88                   329.61                   344.41                   349.39                   184.66                   223.98                   305.95                   329.81                   344.65                   349.66                   181.27                   220.58                   304.26                   329.11                   344.68                   349.88                   175.89                   210.01                   276.43                   294.86                   306.44                   310.57
16.000                   1.5000                   2.0000                   2000.0                   2500.0                   35.000                   224.07                   264.96                   350.70                   375.58                   390.93                   395.91                   224.29                   265.04                   350.24                   375.11                   390.38                   395.38                   223.96                   264.82                   350.23                   375.18                   390.60                   395.61                   223.59                   264.46                   350.05                   375.12                   390.61                   395.65                   224.59                   265.68                   351.85                   377.04                   392.60                   397.64                   224.91                   266.06                   352.40                   377.76                   393.41                   398.48                   224.68                   265.88                   352.36                   377.78                   393.52                   398.62                   223.94                   265.29                   352.34                   377.93                   393.69                   398.82                   219.38                   260.56                   349.12                   375.70                   392.19                   397.52                   212.35                   247.95                   317.50                   336.92                   349.02                   353.25
16.000                   1.5000                   2.0000                   2000.0                   2500.0                   40.000                   263.60                   306.57                   397.64                   424.33                   440.63                   445.73                   263.69                   306.46                   396.83                   423.41                   439.53                   444.65                   263.55                   306.54                   397.43                   424.26                   440.67                   445.80                   263.10                   306.01                   396.89                   423.78                   440.23                   445.38                   264.16                   307.34                   399.02                   426.03                   442.55                   447.70                   264.50                   307.73                   399.48                   426.65                   443.24                   448.41                   264.17                   307.37                   398.97                   426.12                   442.75                   447.96                   263.18                   306.57                   398.89                   426.28                   442.95                   448.18                   257.39                   300.46                   394.08                   422.41                   439.81                   445.25                   248.79                   285.86                   358.52                   378.90                   391.48                   395.78
16.000                   1.5000                   2.0000                   2000.0                   2500.0                   45.000                   302.18                   347.14                   443.28                   471.65                   488.81                   493.95                   302.08                   346.75                   441.79                   469.83                   486.60                   491.78                   302.18                   347.16                   443.14                   471.66                   488.90                   494.09                   301.60                   346.44                   442.28                   470.84                   488.10                   493.30                   302.82                   348.01                   444.80                   473.54                   490.89                   496.10                   303.20                   348.45                   445.33                   474.20                   491.59                   496.80                   302.71                   347.85                   444.37                   473.14                   490.55                   495.80                   301.36                   346.64                   443.84                   472.93                   490.40                   495.67                   294.36                   339.24                   437.51                   467.42                   485.55                   491.03                   284.37                   322.68                   397.63                   418.58                   431.33                   435.61
16.000                   1.5000                   2.0000                   2000.0                   2500.0                   50.000                   340.76                   387.72                   488.93                   518.98                   536.99                   542.18                   340.48                   387.05                   486.74                   516.25                   533.68                   538.92                   340.81                   387.78                   488.85                   519.07                   537.14                   542.38                   340.11                   386.88                   487.66                   517.89                   535.96                   541.21                   341.48                   388.67                   490.58                   521.04                   539.24                   544.50                   341.90                   389.18                   491.18                   521.74                   539.94                   545.20                   341.25                   388.33                   489.76                   520.15                   538.35                   543.64                   339.53                   386.71                   488.80                   519.59                   537.86                   543.16                   331.32                   378.01                   480.95                   512.42                   531.29                   536.81                   319.95                   359.50                   436.74                   458.26                   471.18                   475.44
16.000                   1.5000                   2.0000                   2000.0                   2500.0                   55.000                   379.34                   428.28                   534.58                   566.30                   585.17                   590.40                   378.87                   427.34                   531.69                   562.66                   580.75                   586.05                   379.43                   428.40                   534.55                   566.47                   585.37                   590.67                   378.61                   427.31                   533.05                   564.94                   583.83                   589.13                   380.13                   429.33                   536.36                   568.55                   587.58                   592.89                   380.60                   429.90                   537.02                   569.27                   588.28                   593.58                   379.78                   428.80                   535.15                   567.16                   586.15                   591.47                   377.69                   426.77                   533.75                   566.24                   585.31                   590.65                   368.29                   416.79                   524.38                   557.43                   577.04                   582.59                   355.53                   396.32                   475.85                   497.95                   511.04                   515.28
16.000                   1.5000                   2.0000                   2000.0                   2500.0                   60.000                   414.98                   466.01                   577.59                   611.66                   631.53                   636.83                   414.50                   465.14                   575.35                   608.92                   628.27                   633.62                   415.12                   466.17                   577.70                   611.92                   631.82                   637.17                   414.29                   465.13                   576.42                   610.67                   630.58                   635.94                   415.79                   467.05                   579.30                   613.77                   633.79                   639.15                   416.27                   467.61                   580.00                   614.54                   634.56                   639.92                   415.42                   466.56                   578.50                   612.94                   632.98                   638.37                   413.17                   464.43                   577.05                   611.92                   632.07                   637.48                   403.09                   453.88                   567.61                   603.26                   624.03                   629.66                   389.16                   431.72                   516.52                   540.66                   554.90                   559.22
16.000                   1.5000                   2.0000                   2000.0                   2500.0                   65.000                   450.62                   503.73                   620.61                   657.02                   677.89                   683.26                   450.13                   502.94                   619.01                   655.18                   675.79                   681.18                   450.81                   503.95                   620.85                   657.37                   678.27                   683.66                   449.97                   502.96                   619.79                   656.39                   677.34                   682.75                   451.46                   504.77                   622.25                   658.99                   679.99                   685.41                   451.94                   505.32                   622.98                   659.81                   680.84                   686.26                   451.06                   504.32                   621.85                   658.71                   679.81                   685.26                   448.65                   502.08                   620.35                   657.59                   678.83                   684.31                   437.90                   490.97                   610.84                   649.10                   671.03                   676.74                   422.79                   467.12                   557.18                   583.38                   598.76                   603.15
16.000                   1.5000                   2.0000                   2000.0                   2500.0                   70.000                   486.26                   541.45                   663.62                   702.38                   724.25                   729.69                   485.75                   540.74                   662.66                   701.44                   723.31                   728.74                   486.50                   541.72                   664.00                   702.82                   724.72                   730.16                   485.66                   540.79                   663.17                   702.12                   724.09                   729.56                   487.13                   542.49                   665.20                   704.21                   726.20                   731.67                   487.60                   543.04                   665.96                   705.07                   727.12                   732.60                   486.70                   542.08                   665.19                   704.49                   726.64                   732.15                   484.13                   539.74                   663.65                   703.26                   725.58                   731.13                   472.70                   528.06                   654.07                   694.93                   718.02                   723.82                   456.43                   502.51                   597.85                   626.09                   642.63                   647.09
16.000                   1.5000                   2.0000                   2000.0                   2500.0                   75.000                   517.58                   572.68                   695.93                   737.35                   760.46                   765.94                   517.10                   572.05                   695.08                   736.47                   759.58                   765.06                   517.83                   572.97                   696.38                   737.89                   761.04                   766.52                   517.04                   572.12                   695.65                   737.28                   760.50                   766.00                   518.45                   573.73                   697.74                   739.58                   762.86                   768.37                   518.91                   574.27                   698.63                   740.67                   764.03                   769.55                   518.05                   573.40                   698.02                   740.25                   763.73                   769.28                   515.39                   571.00                   696.34                   738.79                   762.40                   768.00                   503.53                   558.94                   685.57                   728.47                   752.65                   758.47                   486.73                   533.17                   628.98                   657.46                   674.06                   678.40