% Model:              batchmodel_COIL_N_16_COIL_kr_3_COIL_kh_1.5_FUNZ_freq_10000_FUNZ_I_eff_2500.mph
% Version:            COMSOL 6.0.0.318
% Date:               Feb 9 2022, 00:05
% Table:              Tabella 1 - GRIGLIA_T
% COIL_N                 COIL_kr                  COIL_kh                  FUNZ_freq                FUNZ_I_eff               Time (s)                 Temperatura (degC), Point: (0, 0)Temperatura (degC), Point: (15, 0)Temperatura (degC), Point: (28.051, 0)Temperatura (degC), Point: (29.025, 0)Temperatura (degC), Point: (29.61, 0)Temperatura (degC), Point: (29.99, 0)Temperatura (degC), Point: (0, 62.5)Temperatura (degC), Point: (15, 62.5)Temperatura (degC), Point: (28.051, 62.5)Temperatura (degC), Point: (29.025, 62.5)Temperatura (degC), Point: (29.61, 62.5)Temperatura (degC), Point: (29.99, 62.5)Temperatura (degC), Point: (0, 125)Temperatura (degC), Point: (15, 125)Temperatura (degC), Point: (28.051, 125)Temperatura (degC), Point: (29.025, 125)Temperatura (degC), Point: (29.61, 125)Temperatura (degC), Point: (29.99, 125)Temperatura (degC), Point: (0, 187.5)Temperatura (degC), Point: (15, 187.5)Temperatura (degC), Point: (28.051, 187.5)Temperatura (degC), Point: (29.025, 187.5)Temperatura (degC), Point: (29.61, 187.5)Temperatura (degC), Point: (29.99, 187.5)Temperatura (degC), Point: (0, 250)Temperatura (degC), Point: (15, 250)Temperatura (degC), Point: (28.051, 250)Temperatura (degC), Point: (29.025, 250)Temperatura (degC), Point: (29.61, 250)Temperatura (degC), Point: (29.99, 250)Temperatura (degC), Point: (0, 312.5)Temperatura (degC), Point: (15, 312.5)Temperatura (degC), Point: (28.051, 312.5)Temperatura (degC), Point: (29.025, 312.5)Temperatura (degC), Point: (29.61, 312.5)Temperatura (degC), Point: (29.99, 312.5)Temperatura (degC), Point: (0, 375)Temperatura (degC), Point: (15, 375)Temperatura (degC), Point: (28.051, 375)Temperatura (degC), Point: (29.025, 375)Temperatura (degC), Point: (29.61, 375)Temperatura (degC), Point: (29.99, 375)Temperatura (degC), Point: (0, 437.5)Temperatura (degC), Point: (15, 437.5)Temperatura (degC), Point: (28.051, 437.5)Temperatura (degC), Point: (29.025, 437.5)Temperatura (degC), Point: (29.61, 437.5)Temperatura (degC), Point: (29.99, 437.5)Temperatura (degC), Point: (0, 468.75)Temperatura (degC), Point: (15, 468.75)Temperatura (degC), Point: (28.051, 468.75)Temperatura (degC), Point: (29.025, 468.75)Temperatura (degC), Point: (29.61, 468.75)Temperatura (degC), Point: (29.99, 468.75)Temperatura (degC), Point: (0, 492.19)Temperatura (degC), Point: (15, 492.19)Temperatura (degC), Point: (28.051, 492.19)Temperatura (degC), Point: (29.025, 492.19)Temperatura (degC), Point: (29.61, 492.19)Temperatura (degC), Point: (29.99, 492.19)
16.000                   3.0000                   1.5000                   10000                    2500.0                   0.0000                   20.000                   20.000                   20.000                   20.000                   20.078                   20.432                   20.000                   20.000                   20.000                   20.000                   20.078                   20.433                   20.000                   20.000                   20.000                   20.000                   20.078                   20.433                   20.000                   20.000                   20.000                   20.000                   20.078                   20.433                   20.000                   20.000                   20.000                   20.000                   20.078                   20.433                   20.000                   20.000                   20.000                   20.000                   20.078                   20.433                   20.000                   20.000                   20.000                   20.000                   20.078                   20.433                   20.000                   20.000                   20.000                   20.000                   20.076                   20.429                   20.000                   20.000                   20.000                   20.000                   20.070                   20.415                   20.000                   20.000                   20.000                   20.000                   20.056                   20.380
16.000                   3.0000                   1.5000                   10000                    2500.0                   5.0000                   26.696                   50.456                   188.17                   208.15                   220.76                   225.44                   26.633                   50.363                   186.46                   205.88                   218.12                   222.74                   26.610                   50.200                   185.21                   204.54                   216.67                   221.28                   26.613                   50.240                   186.42                   206.20                   218.73                   223.38                   26.604                   50.118                   184.02                   203.20                   215.27                   219.88                   26.611                   50.242                   186.46                   206.04                   218.41                   223.03                   26.596                   50.084                   183.77                   202.84                   214.83                   219.40                   26.548                   49.832                   181.17                   199.82                   211.63                   216.16                   26.254                   48.309                   171.06                   188.17                   199.03                   203.26                   29.243                   50.433                   161.18                   176.06                   185.42                   189.09
16.000                   3.0000                   1.5000                   10000                    2500.0                   10.000                   67.066                   121.30                   314.55                   338.71                   353.48                   358.63                   66.744                   120.55                   311.59                   335.72                   350.18                   355.06                   66.736                   120.76                   315.25                   340.12                   355.43                   360.58                   66.783                   120.91                   315.36                   340.02                   354.92                   359.93                   66.664                   120.42                   312.39                   336.61                   351.14                   355.99                   66.694                   120.56                   312.22                   336.42                   351.06                   355.97                   66.643                   120.55                   314.70                   339.31                   354.32                   359.61                   66.109                   119.26                   310.31                   334.39                   348.84                   353.86                   63.820                   113.68                   292.51                   315.44                   329.43                   334.12                   66.107                   112.84                   259.92                   276.79                   287.21                   291.06
16.000                   3.0000                   1.5000                   10000                    2500.0                   15.000                   133.35                   205.33                   449.78                   481.66                   500.52                   506.31                   132.51                   203.87                   446.64                   478.43                   497.12                   502.96                   132.78                   204.61                   448.68                   480.55                   499.23                   504.99                   133.03                   205.10                   449.33                   481.07                   499.65                   505.44                   132.49                   203.94                   446.96                   478.84                   497.58                   503.41                   132.68                   204.35                   447.56                   479.34                   498.01                   503.85                   132.90                   204.96                   450.03                   482.15                   501.00                   506.74                   131.20                   201.91                   441.06                   472.17                   490.30                   495.92                   125.26                   190.87                   407.33                   434.52                   450.74                   455.99                   124.53                   184.01                   357.62                   377.58                   389.69                   393.86
16.000                   3.0000                   1.5000                   10000                    2500.0                   20.000                   209.30                   293.94                   583.91                   622.86                   645.57                   652.00                   208.10                   292.25                   579.50                   617.15                   638.82                   645.33                   208.63                   293.36                   584.28                   623.22                   645.43                   651.85                   208.96                   293.66                   582.12                   620.23                   641.81                   648.20                   208.13                   292.45                   581.00                   619.38                   641.38                   647.87                   208.44                   292.84                   580.94                   619.22                   641.00                   647.46                   208.82                   293.37                   578.60                   615.85                   637.43                   643.72                   205.57                   288.38                   568.18                   604.67                   625.85                   632.21                   195.32                   271.65                   524.74                   557.13                   576.23                   582.17                   190.32                   258.10                   454.68                   477.11                   490.51                   494.97
16.000                   3.0000                   1.5000                   10000                    2500.0                   25.000                   286.82                   380.33                   699.03                   743.60                   769.03                   775.75                   285.40                   378.35                   690.74                   732.35                   755.29                   761.85                   286.16                   379.87                   698.79                   742.76                   767.17                   773.84                   286.47                   379.98                   696.42                   739.66                   763.14                   769.70                   285.53                   378.83                   694.18                   736.95                   760.57                   767.21                   285.83                   379.04                   694.40                   737.89                   761.42                   767.88                   286.24                   379.33                   689.94                   731.73                   755.24                   761.73                   281.44                   372.79                   679.31                   720.28                   743.22                   749.91                   267.08                   351.24                   629.40                   665.14                   685.62                   691.80                   258.06                   332.20                   547.67                   572.16                   586.32                   590.88
16.000                   3.0000                   1.5000                   10000                    2500.0                   30.000                   362.27                   461.11                   809.54                   865.79                   895.03                   901.93                   360.66                   458.63                   792.17                   842.31                   867.89                   874.62                   361.69                   460.80                   808.67                   863.34                   891.18                   898.05                   361.92                   460.74                   805.92                   860.11                   886.98                   893.70                   360.97                   459.62                   801.77                   855.06                   882.01                   888.83                   361.19                   459.65                   802.42                   856.90                   883.60                   890.17                   361.48                   459.57                   793.19                   843.59                   869.89                   876.66                   355.28                   451.69                   780.43                   830.16                   856.15                   863.13                   337.51                   426.72                   721.66                   761.89                   784.52                   790.99                   326.11                   404.49                   634.95                   662.09                   677.62                   682.28
16.000                   3.0000                   1.5000                   10000                    2500.0                   35.000                   433.31                   535.22                   931.08                   989.43                   1016.4                   1022.0                   431.53                   532.21                   911.55                   968.21                   995.18                   1001.2                   432.83                   534.97                   930.24                   987.86                   1014.7                   1020.4                   433.01                   534.96                   929.05                   986.57                   1013.2                   1018.9                   432.07                   533.68                   922.22                   979.49                   1006.4                   1012.2                   432.20                   533.73                   924.03                   981.72                   1008.6                   1014.3                   432.29                   533.25                   913.99                   970.50                   997.05                   1002.9                   424.97                   524.27                   898.20                   955.72                   983.20                   989.39                   404.74                   496.69                   815.75                   866.56                   892.99                   899.47                   391.35                   472.14                   708.45                   737.09                   753.77                   758.39
16.000                   3.0000                   1.5000                   10000                    2500.0                   40.000                   498.39                   600.75                   1039.2                   1081.1                   1093.0                   1093.9                   496.39                   597.00                   970.40                   1012.4                   1030.7                   1034.1                   497.99                   600.79                   1042.3                   1083.0                   1094.3                   1095.0                   498.17                   600.73                   1024.4                   1066.0                   1078.6                   1079.9                   497.18                   598.88                   965.11                   1000.4                   1016.1                   1019.1                   497.26                   598.71                   960.94                   998.40                   1015.6                   1019.0                   497.13                   598.05                   959.14                   997.80                   1015.4                   1018.9                   488.93                   589.27                   995.89                   1042.5                   1059.8                   1062.5                   466.70                   559.61                   897.66                   945.62                   969.29                   974.64                   450.88                   532.04                   758.61                   787.45                   804.02                   808.39
16.000                   3.0000                   1.5000                   10000                    2500.0                   45.000                   557.09                   656.66                   1080.5                   1105.5                   1111.5                   1111.0                   554.82                   651.22                   1003.6                   1034.6                   1046.0                   1047.5                   556.87                   657.25                   1079.7                   1103.8                   1109.5                   1109.0                   557.03                   656.87                   1072.3                   1097.8                   1104.1                   1103.7                   555.87                   653.62                   990.18                   1016.1                   1026.5                   1028.1                   555.83                   652.16                   961.45                   987.55                   1000.1                   1002.7                   555.56                   651.76                   971.79                   999.98                   1013.2                   1015.7                   547.18                   646.30                   1076.3                   1103.8                   1110.2                   1109.8                   523.08                   614.36                   953.34                   993.31                   1012.3                   1016.3                   504.72                   583.58                   805.21                   834.64                   850.81                   854.89
16.000                   3.0000                   1.5000                   10000                    2500.0                   50.000                   606.86                   701.08                   1087.0                   1105.7                   1109.9                   1109.1                   604.42                   694.74                   1031.1                   1055.1                   1062.6                   1062.9                   606.88                   702.28                   1084.7                   1102.8                   1106.8                   1106.0                   606.97                   701.75                   1083.8                   1102.4                   1106.6                   1105.8                   605.64                   697.23                   1018.9                   1041.1                   1048.7                   1049.3                   605.37                   694.18                   972.52                   993.05                   1002.8                   1004.6                   605.04                   694.31                   988.27                   1010.6                   1020.5                   1022.2                   597.63                   693.09                   1085.0                   1103.9                   1108.0                   1107.2                   572.73                   660.50                   991.93                   1022.8                   1035.3                   1037.3                   552.30                   626.72                   846.01                   873.55                   888.41                   892.03
16.000                   3.0000                   1.5000                   10000                    2500.0                   55.000                   649.13                   737.56                   1087.4                   1102.3                   1105.4                   1104.4                   646.67                   730.77                   1048.2                   1067.2                   1072.5                   1072.3                   649.35                   739.11                   1085.2                   1099.6                   1102.5                   1101.5                   649.36                   738.63                   1086.5                   1101.1                   1104.0                   1103.0                   647.93                   733.09                   1041.7                   1060.2                   1065.6                   1065.5                   647.44                   728.77                   988.26                   1004.8                   1012.2                   1013.3                   647.11                   729.34                   1007.6                   1026.1                   1033.2                   1034.0                   641.02                   731.23                   1083.8                   1099.0                   1102.2                   1101.2                   616.37                   700.18                   1028.1                   1052.5                   1060.3                   1060.8                   594.57                   664.09                   881.64                   907.10                   920.63                   923.79
16.000                   3.0000                   1.5000                   10000                    2500.0                   60.000                   684.40                   770.32                   1085.2                   1097.3                   1099.6                   1098.5                   682.01                   762.62                   1056.8                   1071.9                   1075.7                   1075.1                   684.78                   772.18                   1083.9                   1095.7                   1097.9                   1096.7                   684.71                   771.65                   1085.3                   1097.2                   1099.4                   1098.2                   683.25                   765.14                   1056.8                   1071.7                   1075.5                   1074.9                   682.58                   759.48                   1007.2                   1021.1                   1026.5                   1026.9                   682.28                   760.37                   1027.8                   1043.5                   1048.7                   1048.7                   677.58                   764.54                   1081.1                   1093.8                   1096.4                   1095.3                   654.25                   734.17                   1057.6                   1076.8                   1081.8                   1081.3                   631.62                   696.25                   912.38                   935.45                   947.58                   950.30
16.000                   3.0000                   1.5000                   10000                    2500.0                   65.000                   712.74                   803.22                   1082.3                   1092.2                   1094.0                   1092.7                   710.53                   795.22                   1062.4                   1074.3                   1077.0                   1076.2                   713.18                   805.29                   1082.2                   1091.8                   1093.4                   1092.2                   713.06                   804.66                   1083.2                   1092.9                   1094.5                   1093.2                   711.65                   797.89                   1065.7                   1077.5                   1080.1                   1079.2                   710.89                   791.59                   1028.0                   1039.8                   1043.6                   1043.3                   710.64                   792.54                   1044.6                   1057.6                   1061.2                   1060.6                   707.22                   797.64                   1078.7                   1089.2                   1091.1                   1090.0                   686.59                   766.72                   1074.1                   1089.1                   1092.4                   1091.4                   664.15                   724.20                   937.57                   958.01                   968.64                   970.91
16.000                   3.0000                   1.5000                   10000                    2500.0                   70.000                   735.14                   835.94                   1079.4                   1087.6                   1088.9                   1087.6                   733.13                   828.33                   1066.1                   1075.4                   1077.3                   1076.2                   735.57                   838.09                   1080.4                   1088.4                   1089.5                   1088.2                   735.41                   837.35                   1080.7                   1088.7                   1089.9                   1088.6                   734.09                   831.04                   1069.8                   1078.9                   1080.6                   1079.5                   733.32                   824.86                   1049.4                   1059.6                   1062.1                   1061.2                   733.10                   825.62                   1058.0                   1068.3                   1070.7                   1069.8                   730.78                   830.29                   1076.8                   1085.4                   1086.8                   1085.6                   713.52                   798.20                   1079.3                   1091.2                   1093.6                   1092.5                   692.07                   748.72                   957.61                   975.24                   984.30                   986.10
16.000                   3.0000                   1.5000                   10000                    2500.0                   75.000                   756.39                   866.04                   1079.5                   1086.3                   1087.1                   1085.7                   754.30                   859.80                   1071.7                   1079.1                   1080.2                   1079.0                   756.93                   868.10                   1080.9                   1087.5                   1088.2                   1086.8                   756.72                   867.37                   1080.8                   1087.4                   1088.1                   1086.7                   755.28                   862.20                   1074.9                   1082.1                   1083.1                   1081.8                   754.40                   857.17                   1064.8                   1072.9                   1074.4                   1073.2                   754.15                   857.48                   1068.5                   1076.6                   1077.9                   1076.7                   752.17                   860.59                   1077.6                   1084.7                   1085.6                   1084.3                   735.34                   829.81                   1083.0                   1092.2                   1093.7                   1092.5                   714.37                   773.56                   974.34                   989.33                   996.82                   998.14