% Model:              batchmodel_COIL_N_16_COIL_kr_2.25_COIL_kh_1_FUNZ_freq_10000_FUNZ_I_eff_1000.mph
% Version:            COMSOL 6.0.0.318
% Date:               Feb 8 2022, 22:00
% Table:              Tabella 1 - GRIGLIA_T
% COIL_N                 COIL_kr                  COIL_kh                  FUNZ_freq                FUNZ_I_eff               Time (s)                 Temperatura (degC), Point: (0, 0)Temperatura (degC), Point: (15, 0)Temperatura (degC), Point: (28.051, 0)Temperatura (degC), Point: (29.025, 0)Temperatura (degC), Point: (29.61, 0)Temperatura (degC), Point: (29.99, 0)Temperatura (degC), Point: (0, 62.5)Temperatura (degC), Point: (15, 62.5)Temperatura (degC), Point: (28.051, 62.5)Temperatura (degC), Point: (29.025, 62.5)Temperatura (degC), Point: (29.61, 62.5)Temperatura (degC), Point: (29.99, 62.5)Temperatura (degC), Point: (0, 125)Temperatura (degC), Point: (15, 125)Temperatura (degC), Point: (28.051, 125)Temperatura (degC), Point: (29.025, 125)Temperatura (degC), Point: (29.61, 125)Temperatura (degC), Point: (29.99, 125)Temperatura (degC), Point: (0, 187.5)Temperatura (degC), Point: (15, 187.5)Temperatura (degC), Point: (28.051, 187.5)Temperatura (degC), Point: (29.025, 187.5)Temperatura (degC), Point: (29.61, 187.5)Temperatura (degC), Point: (29.99, 187.5)Temperatura (degC), Point: (0, 250)Temperatura (degC), Point: (15, 250)Temperatura (degC), Point: (28.051, 250)Temperatura (degC), Point: (29.025, 250)Temperatura (degC), Point: (29.61, 250)Temperatura (degC), Point: (29.99, 250)Temperatura (degC), Point: (0, 312.5)Temperatura (degC), Point: (15, 312.5)Temperatura (degC), Point: (28.051, 312.5)Temperatura (degC), Point: (29.025, 312.5)Temperatura (degC), Point: (29.61, 312.5)Temperatura (degC), Point: (29.99, 312.5)Temperatura (degC), Point: (0, 375)Temperatura (degC), Point: (15, 375)Temperatura (degC), Point: (28.051, 375)Temperatura (degC), Point: (29.025, 375)Temperatura (degC), Point: (29.61, 375)Temperatura (degC), Point: (29.99, 375)Temperatura (degC), Point: (0, 437.5)Temperatura (degC), Point: (15, 437.5)Temperatura (degC), Point: (28.051, 437.5)Temperatura (degC), Point: (29.025, 437.5)Temperatura (degC), Point: (29.61, 437.5)Temperatura (degC), Point: (29.99, 437.5)Temperatura (degC), Point: (0, 468.75)Temperatura (degC), Point: (15, 468.75)Temperatura (degC), Point: (28.051, 468.75)Temperatura (degC), Point: (29.025, 468.75)Temperatura (degC), Point: (29.61, 468.75)Temperatura (degC), Point: (29.99, 468.75)Temperatura (degC), Point: (0, 492.19)Temperatura (degC), Point: (15, 492.19)Temperatura (degC), Point: (28.051, 492.19)Temperatura (degC), Point: (29.025, 492.19)Temperatura (degC), Point: (29.61, 492.19)Temperatura (degC), Point: (29.99, 492.19)
16.000                   2.2500                   1.0000                   10000                    1000.0                   0.0000                   20.000                   20.000                   20.000                   20.000                   20.007                   20.138                   20.000                   20.000                   20.000                   20.000                   20.007                   20.138                   20.000                   20.000                   20.000                   20.000                   20.007                   20.138                   20.000                   20.000                   20.000                   20.000                   20.007                   20.139                   20.000                   20.000                   20.000                   20.000                   20.007                   20.140                   20.000                   20.000                   20.000                   20.000                   20.007                   20.141                   20.000                   20.000                   20.000                   20.000                   20.007                   20.142                   20.000                   20.000                   20.000                   20.000                   20.008                   20.143                   20.000                   20.000                   20.000                   20.000                   20.007                   20.138                   20.000                   20.000                   20.000                   20.000                   20.005                   20.124
16.000                   2.2500                   1.0000                   10000                    1000.0                   5.0000                   22.008                   28.108                   58.927                   62.806                   65.285                   66.511                   22.021                   28.181                   58.756                   62.568                   65.008                   66.214                   22.016                   28.169                   58.843                   62.686                   65.106                   66.302                   22.025                   28.217                   59.172                   63.073                   65.534                   66.748                   22.080                   28.467                   60.040                   63.956                   66.455                   67.690                   22.139                   28.688                   60.781                   64.744                   67.266                   68.498                   22.148                   28.743                   61.090                   65.070                   67.630                   68.886                   22.159                   28.800                   61.627                   65.731                   68.355                   69.640                   21.927                   27.910                   58.099                   61.888                   64.324                   65.523                   22.374                   27.918                   52.961                   56.164                   58.206                   59.239
16.000                   2.2500                   1.0000                   10000                    1000.0                   10.000                   32.342                   44.461                   82.237                   86.398                   88.882                   90.102                   32.368                   44.487                   81.855                   85.932                   88.475                   89.709                   32.403                   44.615                   82.603                   86.754                   89.339                   90.619                   32.486                   44.813                   83.071                   87.223                   89.805                   91.054                   32.604                   45.036                   83.375                   87.540                   90.127                   91.379                   32.783                   45.360                   83.913                   88.122                   90.747                   91.997                   32.771                   45.363                   84.036                   88.232                   90.849                   92.117                   32.803                   45.573                   85.806                   90.255                   93.017                   94.337                   31.653                   43.251                   79.506                   83.510                   86.027                   87.242                   31.690                   42.315                   74.043                   77.417                   79.515                   80.544
16.000                   2.2500                   1.0000                   10000                    1000.0                   15.000                   47.523                   62.862                   104.80                   109.22                   111.79                   113.03                   47.544                   62.851                   104.18                   108.45                   111.09                   112.36                   47.688                   63.192                   105.57                   110.02                   112.77                   114.09                   47.859                   63.478                   105.77                   110.13                   112.83                   114.12                   47.980                   63.659                   106.16                   110.53                   113.22                   114.51                   48.179                   63.904                   106.40                   110.83                   113.58                   114.87                   48.102                   63.823                   106.46                   110.88                   113.63                   114.93                   48.196                   64.279                   108.99                   113.65                   116.49                   117.83                   45.844                   60.417                   100.29                   104.46                   107.04                   108.26                   45.209                   58.662                   93.517                   96.976                   99.109                   100.14
16.000                   2.2500                   1.0000                   10000                    1000.0                   20.000                   65.786                   82.599                   126.79                   131.38                   134.05                   135.33                   65.808                   82.593                   126.23                   130.67                   133.42                   134.72                   66.166                   83.244                   128.29                   133.01                   135.94                   137.31                   66.362                   83.512                   128.20                   132.76                   135.58                   136.90                   66.429                   83.589                   128.30                   132.83                   135.62                   136.94                   66.595                   83.787                   128.66                   133.28                   136.14                   137.46                   66.431                   83.618                   128.73                   133.35                   136.22                   137.56                   66.420                   83.928                   130.13                   134.79                   137.76                   139.12                   62.906                   78.876                   120.93                   125.25                   127.92                   129.17                   61.512                   76.236                   112.57                   116.11                   118.29                   119.35
16.000                   2.2500                   1.0000                   10000                    1000.0                   25.000                   84.683                   102.66                   148.85                   153.61                   156.39                   157.69                   84.741                   102.71                   148.42                   153.04                   155.89                   157.22                   85.325                   103.66                   151.02                   155.99                   159.07                   160.49                   85.500                   103.85                   150.65                   155.39                   158.32                   159.68                   85.527                   103.87                   150.60                   155.29                   158.17                   159.52                   85.626                   103.98                   150.94                   155.72                   158.69                   160.04                   85.400                   103.77                   151.11                   155.92                   158.90                   160.27                   85.243                   103.90                   151.71                   156.46                   159.51                   160.91                   80.552                   97.612                   141.56                   146.05                   148.80                   150.08                   78.389                   94.076                   131.66                   135.28                   137.51                   138.58
16.000                   2.2500                   1.0000                   10000                    1000.0                   30.000                   104.86                   123.36                   171.07                   176.03                   178.91                   180.25                   105.02                   123.58                   170.94                   175.72                   178.68                   180.04                   105.85                   124.81                   173.79                   178.94                   182.14                   183.56                   105.92                   124.82                   173.13                   178.04                   181.07                   182.46                   105.93                   124.87                   173.25                   178.10                   181.09                   182.46                   105.89                   124.81                   173.27                   178.18                   181.22                   182.58                   105.66                   124.65                   173.71                   178.68                   181.76                   183.15                   105.27                   124.53                   174.32                   179.31                   182.41                   183.81                   99.369                   116.90                   162.21                   166.85                   169.69                   171.00                   96.416                   112.45                   150.82                   154.51                   156.79                   157.88
16.000                   2.2500                   1.0000                   10000                    1000.0                   35.000                   125.77                   144.84                   194.28                   199.44                   202.43                   203.79                   126.05                   145.20                   194.30                   199.28                   202.36                   203.75                   127.07                   146.60                   197.19                   202.50                   205.81                   207.24                   127.06                   146.54                   196.58                   201.68                   204.83                   206.25                   127.05                   146.58                   196.75                   201.80                   204.91                   206.31                   126.75                   146.21                   196.32                   201.41                   204.55                   205.95                   126.58                   146.16                   197.01                   202.17                   205.36                   206.78                   125.86                   145.70                   197.46                   202.68                   205.87                   207.30                   118.70                   136.69                   183.44                   188.25                   191.20                   192.54                   114.90                   131.22                   170.37                   174.14                   176.46                   177.57
16.000                   2.2500                   1.0000                   10000                    1000.0                   40.000                   147.07                   166.73                   218.00                   223.35                   226.47                   227.87                   147.48                   167.21                   218.11                   223.30                   226.50                   227.93                   148.65                   168.73                   220.92                   226.39                   229.79                   231.23                   148.59                   168.66                   220.55                   225.85                   229.12                   230.58                   148.54                   168.67                   220.70                   225.97                   229.21                   230.65                   147.93                   167.93                   219.75                   225.05                   228.31                   229.75                   147.85                   168.02                   220.67                   226.04                   229.35                   230.81                   146.74                   167.17                   220.89                   226.33                   229.64                   231.10                   138.30                   156.74                   204.98                   209.97                   213.04                   214.42                   133.62                   150.21                   190.11                   193.97                   196.35                   197.46
16.000                   2.2500                   1.0000                   10000                    1000.0                   45.000                   168.37                   188.62                   241.72                   247.27                   250.51                   251.94                   168.91                   189.21                   241.92                   247.31                   250.65                   252.11                   170.23                   190.86                   244.66                   250.28                   253.77                   255.22                   170.12                   190.78                   244.51                   250.02                   253.42                   254.91                   170.04                   190.76                   244.66                   250.14                   253.51                   254.99                   169.11                   189.64                   243.18                   248.68                   252.07                   253.55                   169.13                   189.87                   244.33                   249.90                   253.34                   254.84                   167.62                   188.63                   244.32                   249.98                   253.40                   254.90                   157.91                   176.79                   226.52                   231.70                   234.88                   236.29                   152.34                   169.19                   209.86                   213.80                   216.23                   217.36
16.000                   2.2500                   1.0000                   10000                    1000.0                   50.000                   189.83                   210.72                   265.83                   271.59                   274.95                   276.42                   190.47                   211.39                   265.98                   271.59                   275.06                   276.56                   191.92                   213.14                   268.67                   274.47                   278.07                   279.54                   191.75                   213.02                   268.64                   274.35                   277.89                   279.42                   191.64                   212.99                   268.82                   274.52                   278.03                   279.55                   190.40                   211.51                   266.90                   272.61                   276.14                   277.66                   190.49                   211.84                   268.17                   273.95                   277.52                   279.05                   188.56                   210.19                   267.87                   273.74                   277.30                   278.83                   177.57                   196.93                   248.13                   253.48                   256.75                   258.20                   171.12                   188.24                   229.71                   233.74                   236.23                   237.37
16.000                   2.2500                   1.0000                   10000                    1000.0                   55.000                   211.62                   233.27                   290.73                   296.73                   300.23                   301.73                   212.28                   233.90                   290.58                   296.43                   300.04                   301.58                   213.82                   235.71                   293.25                   299.26                   303.01                   304.51                   213.58                   235.53                   293.11                   299.04                   302.71                   304.27                   213.45                   235.49                   293.41                   299.35                   303.02                   304.57                   211.93                   233.71                   291.20                   297.17                   300.84                   302.40                   212.04                   234.05                   292.36                   298.38                   302.09                   303.66                   209.65                   231.96                   291.67                   297.77                   301.46                   303.03                   197.37                   217.23                   269.89                   275.37                   278.71                   280.16                   190.04                   207.46                   249.80                   253.93                   256.48                   257.64
16.000                   2.2500                   1.0000                   10000                    1000.0                   60.000                   233.41                   255.83                   315.63                   321.87                   325.51                   327.04                   234.10                   256.41                   315.17                   321.26                   325.02                   326.60                   235.72                   258.28                   317.82                   324.06                   327.94                   329.49                   235.42                   258.03                   317.59                   323.73                   327.54                   329.13                   235.25                   257.99                   317.99                   324.19                   328.00                   329.59                   233.45                   255.91                   315.51                   321.72                   325.54                   327.14                   233.58                   256.25                   316.55                   322.81                   326.66                   328.27                   230.74                   253.73                   315.47                   321.79                   325.63                   327.23                   217.17                   237.53                   291.66                   297.27                   300.67                   302.13                   208.95                   226.67                   269.88                   274.11                   276.73                   277.91
16.000                   2.2500                   1.0000                   10000                    1000.0                   65.000                   255.21                   278.38                   340.53                   347.01                   350.79                   352.35                   255.92                   278.92                   339.77                   346.09                   350.00                   351.61                   257.62                   280.85                   342.40                   348.86                   352.88                   354.46                   257.25                   280.54                   342.06                   348.42                   352.36                   353.98                   257.06                   280.49                   342.58                   349.02                   352.98                   354.61                   254.97                   278.11                   339.82                   346.28                   350.24                   351.88                   255.13                   278.46                   340.74                   347.23                   351.24                   352.88                   251.84                   275.49                   339.26                   345.81                   349.79                   351.43                   236.97                   257.83                   313.42                   319.17                   322.62                   324.10                   227.87                   245.89                   289.97                   294.30                   296.99                   298.17
16.000                   2.2500                   1.0000                   10000                    1000.0                   70.000                   276.85                   300.71                   364.77                   371.45                   375.35                   376.94                   277.74                   301.49                   364.52                   371.11                   375.17                   376.81                   279.14                   302.94                   365.85                   372.41                   376.49                   378.07                   278.93                   302.92                   366.48                   373.06                   377.14                   378.79                   278.63                   302.72                   366.72                   373.39                   377.51                   379.17                   276.21                   299.99                   363.59                   370.25                   374.33                   375.99                   276.54                   300.57                   364.98                   371.71                   375.86                   377.53                   272.67                   296.98                   362.57                   369.32                   373.43                   375.09                   256.60                   277.98                   335.15                   341.05                   344.59                   346.09                   246.65                   264.99                   309.89                   314.31                   317.06                   318.26
16.000                   2.2500                   1.0000                   10000                    1000.0                   75.000                   298.50                   323.03                   389.00                   395.89                   399.91                   401.53                   299.57                   324.06                   389.29                   396.12                   400.34                   402.02                   300.66                   325.03                   389.29                   395.95                   400.09                   401.67                   300.61                   325.30                   390.89                   397.71                   401.92                   403.59                   300.20                   324.94                   390.86                   397.77                   402.04                   403.73                   297.45                   321.87                   387.36                   394.22                   398.42                   400.10                   297.95                   322.68                   389.21                   396.19                   400.49                   402.19                   293.51                   318.46                   385.88                   392.82                   397.06                   398.75                   276.22                   298.13                   356.88                   362.94                   366.55                   368.07                   265.43                   284.09                   329.82                   334.33                   337.13                   338.34