% Model:              batchmodel_COIL_N_16_COIL_kr_3_COIL_kh_2_FUNZ_freq_10000_FUNZ_I_eff_1000.mph
% Version:            COMSOL 6.0.0.318
% Date:               Feb 9 2022, 00:13
% Table:              Tabella 1 - GRIGLIA_T
% COIL_N                 COIL_kr                  COIL_kh                  FUNZ_freq                FUNZ_I_eff               Time (s)                 Temperatura (degC), Point: (0, 0)Temperatura (degC), Point: (15, 0)Temperatura (degC), Point: (28.051, 0)Temperatura (degC), Point: (29.025, 0)Temperatura (degC), Point: (29.61, 0)Temperatura (degC), Point: (29.99, 0)Temperatura (degC), Point: (0, 62.5)Temperatura (degC), Point: (15, 62.5)Temperatura (degC), Point: (28.051, 62.5)Temperatura (degC), Point: (29.025, 62.5)Temperatura (degC), Point: (29.61, 62.5)Temperatura (degC), Point: (29.99, 62.5)Temperatura (degC), Point: (0, 125)Temperatura (degC), Point: (15, 125)Temperatura (degC), Point: (28.051, 125)Temperatura (degC), Point: (29.025, 125)Temperatura (degC), Point: (29.61, 125)Temperatura (degC), Point: (29.99, 125)Temperatura (degC), Point: (0, 187.5)Temperatura (degC), Point: (15, 187.5)Temperatura (degC), Point: (28.051, 187.5)Temperatura (degC), Point: (29.025, 187.5)Temperatura (degC), Point: (29.61, 187.5)Temperatura (degC), Point: (29.99, 187.5)Temperatura (degC), Point: (0, 250)Temperatura (degC), Point: (15, 250)Temperatura (degC), Point: (28.051, 250)Temperatura (degC), Point: (29.025, 250)Temperatura (degC), Point: (29.61, 250)Temperatura (degC), Point: (29.99, 250)Temperatura (degC), Point: (0, 312.5)Temperatura (degC), Point: (15, 312.5)Temperatura (degC), Point: (28.051, 312.5)Temperatura (degC), Point: (29.025, 312.5)Temperatura (degC), Point: (29.61, 312.5)Temperatura (degC), Point: (29.99, 312.5)Temperatura (degC), Point: (0, 375)Temperatura (degC), Point: (15, 375)Temperatura (degC), Point: (28.051, 375)Temperatura (degC), Point: (29.025, 375)Temperatura (degC), Point: (29.61, 375)Temperatura (degC), Point: (29.99, 375)Temperatura (degC), Point: (0, 437.5)Temperatura (degC), Point: (15, 437.5)Temperatura (degC), Point: (28.051, 437.5)Temperatura (degC), Point: (29.025, 437.5)Temperatura (degC), Point: (29.61, 437.5)Temperatura (degC), Point: (29.99, 437.5)Temperatura (degC), Point: (0, 468.75)Temperatura (degC), Point: (15, 468.75)Temperatura (degC), Point: (28.051, 468.75)Temperatura (degC), Point: (29.025, 468.75)Temperatura (degC), Point: (29.61, 468.75)Temperatura (degC), Point: (29.99, 468.75)Temperatura (degC), Point: (0, 492.19)Temperatura (degC), Point: (15, 492.19)Temperatura (degC), Point: (28.051, 492.19)Temperatura (degC), Point: (29.025, 492.19)Temperatura (degC), Point: (29.61, 492.19)Temperatura (degC), Point: (29.99, 492.19)
16.000                   3.0000                   2.0000                   10000                    1000.0                   0.0000                   20.000                   20.000                   20.000                   20.000                   20.007                   20.139                   20.000                   20.000                   20.000                   20.000                   20.007                   20.139                   20.000                   20.000                   20.000                   20.000                   20.007                   20.139                   20.000                   20.000                   20.000                   20.000                   20.007                   20.139                   20.000                   20.000                   20.000                   20.000                   20.007                   20.139                   20.000                   20.000                   20.000                   20.000                   20.007                   20.139                   20.000                   20.000                   20.000                   20.000                   20.007                   20.139                   20.000                   20.000                   20.000                   20.000                   20.007                   20.138                   20.000                   20.000                   20.000                   20.000                   20.006                   20.131                   20.000                   20.000                   20.000                   20.000                   20.004                   20.105
16.000                   3.0000                   2.0000                   10000                    1000.0                   5.0000                   21.269                   26.299                   56.121                   60.269                   62.899                   64.203                   21.267                   26.326                   56.188                   60.364                   62.936                   64.141                   21.254                   26.292                   56.537                   60.830                   63.493                   64.865                   21.261                   26.334                   56.899                   61.216                   63.856                   65.186                   21.272                   26.366                   56.087                   60.121                   62.872                   64.113                   21.253                   26.290                   56.408                   60.610                   63.267                   64.504                   21.237                   26.195                   54.568                   58.006                   60.240                   61.399                   20.988                   25.306                   56.381                   60.798                   63.123                   64.318                   21.104                   25.557                   52.570                   56.408                   58.939                   60.264                   21.240                   25.264                   45.280                   47.846                   49.458                   50.296
16.000                   3.0000                   2.0000                   10000                    1000.0                   10.000                   31.259                   45.613                   97.581                   103.56                   106.65                   108.03                   31.257                   45.648                   97.841                   103.89                   106.85                   107.99                   31.349                   46.002                   99.301                   105.45                   108.61                   110.16                   31.383                   46.035                   98.995                   105.05                   108.09                   109.52                   31.282                   45.599                   95.915                   101.37                   104.16                   105.39                   31.311                   45.803                   97.629                   103.37                   106.30                   107.58                   30.763                   44.285                   92.007                   97.099                   99.849                   101.07                   30.413                   44.636                   97.912                   103.78                   106.48                   107.56                   29.471                   41.168                   81.252                   85.734                   88.246                   89.406                   29.589                   39.860                   67.731                   70.516                   72.205                   73.045
16.000                   3.0000                   2.0000                   10000                    1000.0                   15.000                   49.893                   68.302                   116.51                   120.87                   123.28                   124.43                   49.771                   67.985                   115.93                   120.54                   123.01                   124.05                   50.111                   68.620                   116.96                   121.54                   123.65                   124.71                   50.198                   68.820                   118.30                   123.01                   125.32                   126.37                   49.824                   67.991                   115.89                   120.60                   123.45                   124.59                   49.979                   68.270                   115.79                   120.05                   122.44                   123.47                   48.450                   66.069                   114.65                   119.65                   122.62                   124.00                   48.476                   67.130                   121.14                   126.76                   129.62                   130.98                   44.674                   59.535                   100.31                   104.55                   107.01                   108.06                   43.167                   55.622                   85.657                   88.536                   90.286                   91.154
16.000                   3.0000                   2.0000                   10000                    1000.0                   20.000                   71.149                   90.604                   139.18                   143.89                   146.79                   148.13                   70.712                   89.785                   137.64                   142.31                   145.19                   146.54                   71.233                   90.522                   138.68                   143.38                   146.24                   147.58                   71.449                   90.937                   139.77                   144.50                   147.39                   148.73                   70.804                   89.854                   137.56                   142.20                   145.04                   146.36                   70.957                   90.001                   137.76                   142.45                   145.34                   146.69                   69.103                   88.189                   136.58                   141.25                   144.11                   145.43                   69.251                   89.185                   139.32                   143.97                   146.79                   148.08                   62.237                   78.199                   119.19                   123.28                   125.79                   126.99                   58.544                   71.757                   102.42                   105.27                   107.01                   107.88
16.000                   3.0000                   2.0000                   10000                    1000.0                   25.000                   92.977                   112.73                   162.53                   167.50                   170.57                   171.95                   92.349                   111.90                   161.51                   166.43                   169.46                   170.87                   92.925                   112.60                   162.54                   167.52                   170.52                   171.90                   93.252                   113.09                   163.33                   168.30                   171.32                   172.71                   92.430                   111.93                   161.15                   165.97                   168.90                   170.27                   92.545                   112.08                   161.86                   166.83                   169.88                   171.28                   90.546                   109.93                   158.74                   163.54                   166.48                   167.83                   90.202                   109.94                   159.05                   163.79                   166.64                   167.92                   80.501                   96.843                   138.65                   142.88                   145.48                   146.71                   74.605                   87.965                   118.72                   121.60                   123.36                   124.24
16.000                   3.0000                   2.0000                   10000                    1000.0                   30.000                   114.23                   133.68                   181.92                   186.64                   189.56                   190.94                   113.59                   132.95                   181.08                   185.78                   188.78                   190.12                   114.14                   133.58                   181.94                   186.71                   189.71                   191.10                   114.50                   134.01                   182.15                   186.79                   189.79                   191.16                   113.64                   132.97                   181.39                   186.25                   189.35                   190.74                   113.71                   133.07                   181.27                   186.00                   188.94                   190.29                   111.55                   130.69                   178.67                   183.49                   186.52                   187.91                   110.12                   129.07                   175.53                   180.08                   183.01                   184.41                   98.548                   114.80                   155.99                   160.08                   162.65                   163.86                   90.666                   103.83                   134.62                   137.54                   139.34                   140.23
16.000                   3.0000                   2.0000                   10000                    1000.0                   35.000                   134.81                   154.14                   203.42                   208.43                   211.54                   212.95                   134.25                   153.55                   202.83                   207.85                   210.97                   212.37                   134.77                   154.09                   203.35                   208.34                   211.47                   212.87                   135.09                   154.44                   203.72                   208.74                   211.86                   213.27                   134.28                   153.56                   202.84                   207.87                   211.00                   212.40                   134.30                   153.59                   202.83                   207.84                   210.95                   212.36                   132.01                   151.13                   200.08                   205.07                   208.17                   209.57                   129.15                   147.76                   195.00                   199.80                   202.81                   204.17                   116.19                   132.46                   174.52                   178.83                   181.51                   182.75                   106.77                   119.93                   151.14                   154.11                   155.94                   156.83
16.000                   3.0000                   2.0000                   10000                    1000.0                   40.000                   155.17                   174.61                   225.03                   230.26                   233.52                   234.96                   154.71                   174.16                   224.68                   229.93                   233.17                   234.62                   155.18                   174.64                   224.96                   230.11                   233.37                   234.81                   155.45                   174.90                   225.31                   230.56                   233.80                   235.25                   154.71                   174.15                   224.48                   229.66                   232.87                   234.31                   154.70                   174.15                   224.63                   229.86                   233.11                   234.56                   152.31                   171.63                   221.73                   226.88                   230.09                   231.52                   147.95                   166.55                   214.71                   219.70                   222.80                   224.17                   133.68                   150.09                   193.01                   197.45                   200.22                   201.49                   122.91                   136.14                   167.79                   170.80                   172.66                   173.56
16.000                   3.0000                   2.0000                   10000                    1000.0                   45.000                   175.57                   195.45                   247.62                   253.07                   256.46                   257.94                   175.17                   195.06                   247.25                   252.70                   256.06                   257.54                   175.58                   195.47                   247.46                   252.82                   256.20                   257.68                   175.82                   195.70                   247.79                   253.23                   256.60                   258.07                   175.16                   195.03                   247.03                   252.41                   255.74                   257.21                   175.10                   194.99                   247.13                   252.56                   255.93                   257.42                   172.64                   192.40                   244.12                   249.47                   252.80                   254.26                   166.85                   185.83                   235.68                   240.89                   244.09                   245.50                   151.21                   167.94                   211.98                   216.56                   219.41                   220.70                   139.37                   152.80                   184.96                   188.03                   189.92                   190.83
16.000                   3.0000                   2.0000                   10000                    1000.0                   50.000                   195.98                   216.36                   270.37                   276.03                   279.56                   281.08                   195.63                   216.01                   269.94                   275.58                   279.07                   280.58                   195.99                   216.35                   270.11                   275.69                   279.19                   280.70                   196.20                   216.56                   270.41                   276.04                   279.53                   281.04                   195.60                   215.97                   269.73                   275.32                   278.76                   280.27                   195.50                   215.87                   269.75                   275.38                   278.87                   280.38                   192.98                   213.22                   266.64                   272.19                   275.63                   277.12                   185.76                   205.19                   256.86                   262.30                   265.61                   267.04                   168.74                   185.83                   231.03                   235.74                   238.67                   239.99                   155.89                   169.54                   202.22                   205.34                   207.27                   208.18
16.000                   3.0000                   2.0000                   10000                    1000.0                   55.000                   216.45                   237.40                   293.34                   299.23                   302.89                   304.44                   216.13                   237.07                   292.84                   298.68                   302.29                   303.84                   216.43                   237.34                   292.97                   298.78                   302.40                   303.94                   216.62                   237.54                   293.26                   299.10                   302.71                   304.25                   216.08                   237.01                   292.65                   298.44                   302.02                   303.56                   215.94                   236.87                   292.58                   298.42                   302.03                   303.57                   213.35                   234.15                   289.37                   295.13                   298.70                   300.22                   204.74                   224.70                   278.22                   283.87                   287.29                   288.76                   186.32                   203.80                   250.22                   255.08                   258.09                   259.44                   172.50                   186.38                   219.60                   222.78                   224.74                   225.66
16.000                   3.0000                   2.0000                   10000                    1000.0                   60.000                   237.00                   258.62                   316.59                   322.70                   326.49                   328.08                   236.68                   258.27                   315.99                   322.04                   325.79                   327.36                   236.92                   258.48                   316.10                   322.14                   325.90                   327.46                   237.11                   258.69                   316.40                   322.45                   326.20                   327.77                   236.63                   258.20                   315.83                   321.85                   325.57                   327.14                   236.44                   258.01                   315.68                   321.73                   325.47                   327.05                   233.78                   255.21                   312.36                   318.34                   322.04                   323.60                   223.81                   244.39                   299.80                   305.66                   309.21                   310.70                   203.95                   221.86                   269.60                   274.60                   277.71                   279.07                   189.23                   203.34                   237.12                   240.36                   242.36                   243.29
16.000                   3.0000                   2.0000                   10000                    1000.0                   65.000                   257.56                   279.84                   339.85                   346.19                   350.12                   351.73                   257.24                   279.47                   339.15                   345.42                   349.30                   350.90                   257.42                   279.62                   339.24                   345.52                   349.40                   351.00                   257.61                   279.84                   339.55                   345.83                   349.71                   351.31                   257.17                   279.40                   339.03                   345.28                   349.13                   350.73                   256.94                   279.17                   338.79                   345.06                   348.93                   350.54                   254.21                   276.27                   335.37                   341.57                   345.41                   347.00                   242.90                   264.10                   321.40                   327.46                   331.13                   332.66                   221.60                   239.93                   288.99                   294.14                   297.33                   298.72                   205.96                   220.31                   254.66                   257.96                   259.99                   260.93
16.000                   3.0000                   2.0000                   10000                    1000.0                   70.000                   278.34                   301.37                   363.55                   370.13                   374.20                   375.84                   278.00                   300.97                   362.80                   369.32                   373.34                   374.97                   278.13                   301.07                   362.86                   369.38                   373.41                   375.04                   278.32                   301.29                   363.18                   369.70                   373.72                   375.36                   277.93                   300.89                   362.70                   369.20                   373.20                   374.83                   277.65                   300.60                   362.37                   368.88                   372.90                   374.53                   274.82                   297.60                   358.83                   365.27                   369.25                   370.87                   262.23                   284.11                   343.38                   349.66                   353.46                   355.02                   239.42                   258.23                   308.74                   314.05                   317.34                   318.75                   222.85                   237.46                   272.45                   275.82                   277.89                   278.84
16.000                   3.0000                   2.0000                   10000                    1000.0                   75.000                   299.12                   322.90                   387.24                   394.07                   398.29                   399.96                   298.76                   322.46                   386.46                   393.21                   397.38                   399.04                   298.84                   322.52                   386.48                   393.25                   397.42                   399.08                   299.04                   322.75                   386.80                   393.57                   397.74                   399.40                   298.68                   322.38                   386.37                   393.12                   397.28                   398.94                   298.35                   322.04                   385.95                   392.70                   396.87                   398.53                   295.42                   318.94                   382.28                   388.97                   393.09                   394.74                   281.56                   304.12                   365.37                   371.86                   375.80                   377.38                   257.23                   276.54                   328.49                   333.96                   337.35                   338.79                   239.74                   254.61                   290.25                   293.68                   295.79                   296.75