% Model:              batchmodel_COIL_N_16_COIL_kr_3_COIL_kh_1.5_FUNZ_freq_6000_FUNZ_I_eff_2500.mph
% Version:            COMSOL 6.0.0.318
% Date:               Feb 8 2022, 23:47
% Table:              Tabella 1 - GRIGLIA_T
% COIL_N                 COIL_kr                  COIL_kh                  FUNZ_freq                FUNZ_I_eff               Time (s)                 Temperatura (degC), Point: (0, 0)Temperatura (degC), Point: (15, 0)Temperatura (degC), Point: (27.483, 0)Temperatura (degC), Point: (28.742, 0)Temperatura (degC), Point: (29.497, 0)Temperatura (degC), Point: (29.99, 0)Temperatura (degC), Point: (0, 62.5)Temperatura (degC), Point: (15, 62.5)Temperatura (degC), Point: (27.483, 62.5)Temperatura (degC), Point: (28.742, 62.5)Temperatura (degC), Point: (29.497, 62.5)Temperatura (degC), Point: (29.99, 62.5)Temperatura (degC), Point: (0, 125)Temperatura (degC), Point: (15, 125)Temperatura (degC), Point: (27.483, 125)Temperatura (degC), Point: (28.742, 125)Temperatura (degC), Point: (29.497, 125)Temperatura (degC), Point: (29.99, 125)Temperatura (degC), Point: (0, 187.5)Temperatura (degC), Point: (15, 187.5)Temperatura (degC), Point: (27.483, 187.5)Temperatura (degC), Point: (28.742, 187.5)Temperatura (degC), Point: (29.497, 187.5)Temperatura (degC), Point: (29.99, 187.5)Temperatura (degC), Point: (0, 250)Temperatura (degC), Point: (15, 250)Temperatura (degC), Point: (27.483, 250)Temperatura (degC), Point: (28.742, 250)Temperatura (degC), Point: (29.497, 250)Temperatura (degC), Point: (29.99, 250)Temperatura (degC), Point: (0, 312.5)Temperatura (degC), Point: (15, 312.5)Temperatura (degC), Point: (27.483, 312.5)Temperatura (degC), Point: (28.742, 312.5)Temperatura (degC), Point: (29.497, 312.5)Temperatura (degC), Point: (29.99, 312.5)Temperatura (degC), Point: (0, 375)Temperatura (degC), Point: (15, 375)Temperatura (degC), Point: (27.483, 375)Temperatura (degC), Point: (28.742, 375)Temperatura (degC), Point: (29.497, 375)Temperatura (degC), Point: (29.99, 375)Temperatura (degC), Point: (0, 437.5)Temperatura (degC), Point: (15, 437.5)Temperatura (degC), Point: (27.483, 437.5)Temperatura (degC), Point: (28.742, 437.5)Temperatura (degC), Point: (29.497, 437.5)Temperatura (degC), Point: (29.99, 437.5)Temperatura (degC), Point: (0, 468.75)Temperatura (degC), Point: (15, 468.75)Temperatura (degC), Point: (27.483, 468.75)Temperatura (degC), Point: (28.742, 468.75)Temperatura (degC), Point: (29.497, 468.75)Temperatura (degC), Point: (29.99, 468.75)Temperatura (degC), Point: (0, 492.19)Temperatura (degC), Point: (15, 492.19)Temperatura (degC), Point: (27.483, 492.19)Temperatura (degC), Point: (28.742, 492.19)Temperatura (degC), Point: (29.497, 492.19)Temperatura (degC), Point: (29.99, 492.19)
16.000                   3.0000                   1.5000                   6000.0                   2500.0                   0.0000                   20.000                   20.000                   20.000                   20.000                   20.043                   20.275                   20.000                   20.000                   20.000                   20.000                   20.043                   20.275                   20.000                   20.000                   20.000                   20.000                   20.043                   20.275                   20.000                   20.000                   20.000                   20.000                   20.043                   20.275                   20.000                   20.000                   20.000                   20.000                   20.043                   20.275                   20.000                   20.000                   20.000                   20.000                   20.043                   20.276                   20.000                   20.000                   20.000                   20.000                   20.043                   20.276                   20.000                   20.000                   20.000                   20.000                   20.042                   20.273                   20.000                   20.000                   20.000                   20.000                   20.038                   20.263                   20.000                   20.000                   20.000                   20.000                   20.027                   20.226
16.000                   3.0000                   1.5000                   6000.0                   2500.0                   5.0000                   25.841                   43.921                   138.46                   156.21                   167.61                   172.03                   25.794                   43.782                   138.23                   155.94                   167.30                   171.69                   25.838                   43.938                   138.70                   156.41                   167.77                   172.19                   25.795                   43.747                   138.00                   155.68                   167.02                   171.41                   25.846                   43.988                   138.98                   156.77                   168.19                   172.62                   25.872                   44.088                   139.27                   157.07                   168.51                   172.94                   25.857                   44.009                   139.16                   157.07                   168.58                   173.02                   25.718                   43.475                   136.48                   153.96                   165.18                   169.55                   25.254                   41.421                   126.76                   142.83                   153.17                   157.26                   27.045                   42.311                   112.15                   124.34                   132.16                   135.41
16.000                   3.0000                   1.5000                   6000.0                   2500.0                   10.000                   55.328                   96.967                   228.80                   249.93                   263.10                   267.84                   55.227                   96.869                   228.87                   249.89                   262.92                   267.63                   55.378                   97.091                   229.36                   250.55                   263.75                   268.53                   55.205                   96.714                   228.09                   249.06                   262.12                   266.84                   55.412                   97.186                   229.81                   251.06                   264.26                   269.03                   55.472                   97.244                   229.44                   250.59                   263.78                   268.52                   55.401                   97.130                   229.56                   250.77                   263.99                   268.73                   54.512                   95.297                   224.34                   244.84                   257.59                   262.25                   51.775                   89.092                   207.10                   225.83                   237.55                   241.90                   51.702                   84.984                   179.67                   193.52                   202.15                   205.55
16.000                   3.0000                   1.5000                   6000.0                   2500.0                   15.000                   105.24                   160.52                   315.72                   340.35                   355.45                   360.56                   105.23                   160.75                   316.87                   341.65                   356.91                   362.04                   105.38                   160.79                   316.32                   340.78                   355.78                   360.91                   105.08                   160.32                   315.56                   340.25                   355.49                   360.61                   105.46                   160.98                   317.54                   342.45                   357.87                   363.01                   105.47                   160.86                   316.78                   341.60                   356.89                   362.01                   105.28                   160.61                   316.37                   341.11                   356.25                   361.38                   103.07                   157.05                   307.73                   331.43                   346.07                   351.03                   96.556                   145.86                   282.16                   303.53                   316.73                   321.28                   92.421                   135.49                   242.27                   257.36                   266.69                   270.21
16.000                   3.0000                   1.5000                   6000.0                   2500.0                   20.000                   166.40                   227.84                   401.61                   429.40                   445.71                   451.06                   166.74                   228.79                   404.80                   433.02                   450.04                   455.49                   166.70                   228.44                   402.80                   430.59                   447.47                   452.85                   166.37                   228.16                   404.21                   432.62                   449.65                   455.09                   166.91                   229.09                   407.56                   436.62                   454.53                   460.15                   166.77                   228.63                   405.55                   434.34                   451.64                   457.12                   166.38                   228.17                   404.84                   433.38                   450.29                   455.76                   162.40                   222.30                   390.93                   417.89                   434.29                   439.53                   151.31                   205.60                   356.28                   380.19                   394.89                   399.69                   142.21                   189.15                   304.01                   320.30                   330.34                   333.96
16.000                   3.0000                   1.5000                   6000.0                   2500.0                   25.000                   229.12                   295.65                   492.75                   525.55                   544.53                   550.31                   229.99                   297.35                   496.46                   529.52                   548.89                   554.69                   229.70                   296.84                   496.37                   529.70                   548.89                   554.77                   229.53                   296.98                   497.90                   531.49                   551.01                   556.84                   230.24                   298.16                   500.55                   534.07                   553.51                   559.41                   229.83                   297.31                   498.46                   531.99                   551.45                   557.30                   229.19                   296.49                   496.56                   529.79                   549.11                   554.90                   223.04                   287.76                   478.18                   509.64                   528.15                   533.82                   207.31                   265.36                   432.60                   459.62                   475.88                   481.01                   194.73                   244.11                   369.31                   387.27                   398.21                   401.98
16.000                   3.0000                   1.5000                   6000.0                   2500.0                   30.000                   290.61                   363.15                   583.13                   620.67                   642.56                   648.77                   291.95                   365.30                   587.60                   625.70                   647.61                   653.72                   291.54                   364.83                   587.21                   625.11                   646.07                   652.21                   291.64                   365.41                   589.64                   627.91                   649.98                   656.14                   292.51                   366.76                   591.95                   630.10                   650.99                   657.05                   291.81                   365.55                   588.98                   626.80                   648.38                   654.43                   290.86                   364.28                   585.79                   623.26                   644.73                   650.72                   282.47                   352.99                   564.62                   600.12                   620.31                   626.22                   262.40                   325.33                   511.16                   541.61                   559.42                   564.82                   247.91                   299.66                   435.41                   455.37                   467.21                   471.14
16.000                   3.0000                   1.5000                   6000.0                   2500.0                   35.000                   350.80                   428.21                   664.16                   706.07                   730.25                   736.76                   352.26                   430.21                   667.47                   709.64                   733.88                   740.38                   351.91                   429.85                   667.09                   709.18                   733.12                   739.63                   352.20                   430.51                   668.85                   711.16                   735.47                   741.99                   353.11                   431.78                   670.72                   713.07                   737.08                   743.58                   352.26                   430.52                   668.41                   710.52                   734.70                   741.19                   351.06                   429.04                   665.74                   707.57                   731.59                   738.03                   341.07                   416.72                   646.19                   686.21                   708.86                   715.09                   317.30                   385.14                   587.39                   621.19                   640.66                   646.22                   298.46                   353.45                   496.49                   517.51                   529.98                   533.92
16.000                   3.0000                   1.5000                   6000.0                   2500.0                   40.000                   408.37                   489.58                   743.21                   792.87                   819.90                   826.66                   409.83                   491.39                   746.04                   795.86                   822.90                   829.67                   409.55                   491.12                   745.72                   795.49                   822.56                   829.33                   409.95                   491.79                   747.24                   797.23                   824.32                   831.08                   410.86                   492.95                   748.87                   798.86                   826.00                   832.78                   409.93                   491.73                   746.86                   796.73                   823.79                   830.55                   408.56                   490.12                   744.18                   793.82                   820.81                   827.57                   397.32                   476.76                   720.80                   767.55                   793.30                   799.88                   370.57                   441.98                   654.92                   691.27                   712.18                   717.89                   348.10                   405.73                   555.60                   577.62                   590.62                   594.56
16.000                   3.0000                   1.5000                   6000.0                   2500.0                   45.000                   463.21                   547.14                   822.16                   878.96                   907.83                   914.48                   464.59                   548.72                   824.69                   881.58                   910.39                   917.02                   464.37                   548.52                   824.52                   881.39                   910.30                   916.93                   464.82                   549.15                   826.00                   883.14                   911.97                   918.57                   465.70                   550.18                   827.43                   884.41                   913.33                   919.95                   464.76                   549.05                   825.71                   882.70                   911.47                   918.08                   463.28                   547.40                   822.85                   879.70                   908.58                   915.23                   451.00                   533.06                   793.22                   846.63                   874.73                   881.39                   421.71                   495.49                   715.02                   754.21                   776.58                   782.41                   396.35                   455.99                   611.14                   634.01                   647.41                   651.32
16.000                   3.0000                   1.5000                   6000.0                   2500.0                   50.000                   514.93                   600.38                   903.94                   961.07                   988.27                   993.93                   516.20                   601.67                   905.54                   962.55                   989.63                   995.27                   516.03                   601.54                   905.76                   962.79                   989.92                   995.55                   516.50                   602.11                   907.03                   964.27                   991.34                   996.93                   517.31                   602.99                   908.03                   965.02                   992.14                   997.74                   516.41                   602.02                   907.06                   964.23                   991.25                   996.85                   514.89                   600.43                   904.41                   961.65                   988.90                   994.58                   501.60                   585.24                   870.66                   927.04                   954.62                   960.62                   469.83                   544.86                   769.07                   813.10                   837.25                   843.17                   442.34                   503.25                   660.43                   683.85                   697.43                   701.24
16.000                   3.0000                   1.5000                   6000.0                   2500.0                   55.000                   564.15                   649.23                   963.09                   1011.1                   1031.7                   1035.3                   565.27                   650.28                   962.65                   1009.9                   1030.4                   1034.0                   565.16                   650.21                   964.31                   1012.1                   1032.6                   1036.1                   565.62                   650.72                   964.96                   1012.6                   1033.0                   1036.5                   566.35                   651.45                   965.73                   1013.2                   1033.5                   1036.9                   565.52                   650.65                   965.49                   1013.2                   1033.6                   1037.1                   564.01                   649.17                   963.88                   1012.0                   1032.6                   1036.2                   549.91                   633.43                   935.98                   987.01                   1010.7                   1015.4                   515.77                   590.65                   823.33                   868.80                   892.55                   898.06                   486.31                   547.74                   702.33                   725.32                   738.83                   742.49
16.000                   3.0000                   1.5000                   6000.0                   2500.0                   60.000                   608.59                   691.25                   999.58                   1037.3                   1051.0                   1052.5                   609.55                   691.83                   979.20                   1011.7                   1025.3                   1027.4                   609.47                   691.94                   993.60                   1030.2                   1044.2                   1045.9                   609.89                   692.38                   995.56                   1032.4                   1046.3                   1048.0                   610.52                   692.95                   992.17                   1028.2                   1042.1                   1043.9                   609.80                   692.27                   990.49                   1026.3                   1040.3                   1042.2                   608.38                   690.92                   988.51                   1024.4                   1038.6                   1040.6                   594.09                   676.03                   986.51                   1029.2                   1046.0                   1048.4                   558.26                   631.32                   871.35                   914.76                   936.67                   941.46                   527.38                   587.44                   734.41                   756.66                   769.86                   773.33
16.000                   3.0000                   1.5000                   6000.0                   2500.0                   65.000                   647.83                   727.01                   1036.8                   1066.2                   1074.6                   1074.5                   648.63                   726.46                   988.57                   1012.4                   1022.1                   1023.2                   648.56                   726.82                   1006.8                   1034.5                   1044.5                   1045.4                   648.93                   727.31                   1019.0                   1048.3                   1057.8                   1058.3                   649.44                   727.46                   1001.9                   1028.9                   1039.1                   1040.1                   648.83                   726.75                   994.14                   1020.1                   1030.5                   1031.7                   647.54                   725.63                   996.49                   1022.8                   1033.1                   1034.2                   633.76                   713.42                   1039.9                   1072.4                   1081.4                   1081.3                   597.07                   667.50                   909.74                   949.01                   968.51                   972.55                   565.38                   622.55                   761.42                   783.50                   796.42                   799.70
16.000                   3.0000                   1.5000                   6000.0                   2500.0                   70.000                   678.67                   758.23                   1056.9                   1079.7                   1085.3                   1084.5                   679.21                   755.61                   1001.7                   1022.0                   1029.7                   1030.2                   679.14                   756.29                   1018.5                   1041.2                   1048.8                   1049.0                   679.48                   757.36                   1036.8                   1060.5                   1067.4                   1067.1                   679.83                   756.33                   1008.9                   1030.7                   1038.7                   1039.1                   679.31                   755.29                   998.04                   1018.7                   1026.9                   1027.7                   678.22                   754.65                   1008.0                   1029.8                   1037.8                   1038.3                   666.08                   745.69                   1064.0                   1087.9                   1093.4                   1092.5                   629.62                   696.88                   936.94                   972.12                   989.43                   992.84                   597.74                   651.50                   786.61                   808.79                   821.37                   824.44
16.000                   3.0000                   1.5000                   6000.0                   2500.0                   75.000                   704.47                   789.13                   1068.5                   1086.2                   1090.0                   1088.7                   704.70                   784.56                   1015.1                   1032.7                   1038.8                   1038.8                   704.65                   785.66                   1030.5                   1049.2                   1055.0                   1054.6                   704.94                   787.27                   1049.5                   1068.6                   1073.5                   1072.7                   705.11                   784.97                   1017.3                   1035.2                   1041.4                   1041.3                   704.69                   783.59                   1005.3                   1022.1                   1028.6                   1028.8                   703.84                   783.51                   1020.4                   1038.9                   1045.0                   1044.9                   694.00                   777.65                   1075.9                   1093.6                   1097.0                   1095.7                   658.79                   723.09                   958.90                   990.08                   1005.2                   1007.9                   627.07                   677.41                   811.10                   832.95                   845.05                   847.90