% Model:              batchmodel_COIL_N_16_COIL_kr_3_COIL_kh_1_FUNZ_freq_6000_FUNZ_I_eff_2500.mph
% Version:            COMSOL 6.0.0.318
% Date:               Feb 8 2022, 23:20
% Table:              Tabella 1 - GRIGLIA_T
% COIL_N                 COIL_kr                  COIL_kh                  FUNZ_freq                FUNZ_I_eff               Time (s)                 Temperatura (degC), Point: (0, 0)Temperatura (degC), Point: (15, 0)Temperatura (degC), Point: (27.483, 0)Temperatura (degC), Point: (28.742, 0)Temperatura (degC), Point: (29.497, 0)Temperatura (degC), Point: (29.99, 0)Temperatura (degC), Point: (0, 62.5)Temperatura (degC), Point: (15, 62.5)Temperatura (degC), Point: (27.483, 62.5)Temperatura (degC), Point: (28.742, 62.5)Temperatura (degC), Point: (29.497, 62.5)Temperatura (degC), Point: (29.99, 62.5)Temperatura (degC), Point: (0, 125)Temperatura (degC), Point: (15, 125)Temperatura (degC), Point: (27.483, 125)Temperatura (degC), Point: (28.742, 125)Temperatura (degC), Point: (29.497, 125)Temperatura (degC), Point: (29.99, 125)Temperatura (degC), Point: (0, 187.5)Temperatura (degC), Point: (15, 187.5)Temperatura (degC), Point: (27.483, 187.5)Temperatura (degC), Point: (28.742, 187.5)Temperatura (degC), Point: (29.497, 187.5)Temperatura (degC), Point: (29.99, 187.5)Temperatura (degC), Point: (0, 250)Temperatura (degC), Point: (15, 250)Temperatura (degC), Point: (27.483, 250)Temperatura (degC), Point: (28.742, 250)Temperatura (degC), Point: (29.497, 250)Temperatura (degC), Point: (29.99, 250)Temperatura (degC), Point: (0, 312.5)Temperatura (degC), Point: (15, 312.5)Temperatura (degC), Point: (27.483, 312.5)Temperatura (degC), Point: (28.742, 312.5)Temperatura (degC), Point: (29.497, 312.5)Temperatura (degC), Point: (29.99, 312.5)Temperatura (degC), Point: (0, 375)Temperatura (degC), Point: (15, 375)Temperatura (degC), Point: (27.483, 375)Temperatura (degC), Point: (28.742, 375)Temperatura (degC), Point: (29.497, 375)Temperatura (degC), Point: (29.99, 375)Temperatura (degC), Point: (0, 437.5)Temperatura (degC), Point: (15, 437.5)Temperatura (degC), Point: (27.483, 437.5)Temperatura (degC), Point: (28.742, 437.5)Temperatura (degC), Point: (29.497, 437.5)Temperatura (degC), Point: (29.99, 437.5)Temperatura (degC), Point: (0, 468.75)Temperatura (degC), Point: (15, 468.75)Temperatura (degC), Point: (27.483, 468.75)Temperatura (degC), Point: (28.742, 468.75)Temperatura (degC), Point: (29.497, 468.75)Temperatura (degC), Point: (29.99, 468.75)Temperatura (degC), Point: (0, 492.19)Temperatura (degC), Point: (15, 492.19)Temperatura (degC), Point: (27.483, 492.19)Temperatura (degC), Point: (28.742, 492.19)Temperatura (degC), Point: (29.497, 492.19)Temperatura (degC), Point: (29.99, 492.19)
16.000                   3.0000                   1.0000                   6000.0                   2500.0                   0.0000                   20.000                   20.000                   20.000                   20.000                   20.043                   20.273                   20.000                   20.000                   20.000                   20.000                   20.043                   20.274                   20.000                   20.000                   20.000                   20.000                   20.043                   20.274                   20.000                   20.000                   20.000                   20.000                   20.043                   20.274                   20.000                   20.000                   20.000                   20.000                   20.043                   20.274                   20.000                   20.000                   20.000                   20.000                   20.043                   20.274                   20.000                   20.000                   20.000                   20.000                   20.043                   20.274                   20.000                   20.000                   20.000                   20.000                   20.042                   20.272                   20.000                   20.000                   20.000                   20.000                   20.038                   20.262                   20.000                   20.000                   20.000                   20.000                   20.028                   20.230
16.000                   3.0000                   1.0000                   6000.0                   2500.0                   5.0000                   25.678                   44.185                   139.01                   156.49                   167.92                   172.35                   25.661                   44.124                   138.66                   156.09                   166.94                   171.33                   25.702                   44.304                   139.53                   157.30                   168.88                   173.30                   25.701                   44.279                   139.62                   157.41                   168.84                   173.23                   25.724                   44.368                   140.03                   157.97                   169.51                   173.93                   25.737                   44.462                   140.17                   157.81                   169.14                   173.48                   25.715                   44.367                   140.27                   158.20                   169.69                   174.07                   25.715                   44.474                   140.10                   157.42                   168.40                   172.85                   25.439                   43.112                   132.74                   148.83                   159.01                   162.99                   29.041                   46.273                   120.85                   133.48                   141.31                   144.55
16.000                   3.0000                   1.0000                   6000.0                   2500.0                   10.000                   59.552                   100.71                   237.37                   259.85                   273.89                   278.79                   59.498                   100.60                   237.88                   261.22                   275.02                   280.11                   59.742                   101.10                   238.19                   261.02                   274.99                   279.99                   59.595                   100.63                   235.09                   257.09                   270.56                   275.39                   59.727                   100.89                   236.14                   258.35                   271.94                   276.81                   59.773                   101.10                   238.37                   261.03                   274.56                   279.41                   59.571                   100.56                   235.17                   257.35                   270.98                   275.82                   59.458                   100.54                   235.49                   257.39                   270.83                   275.62                   57.218                   95.091                   217.87                   237.59                   249.57                   253.99                   61.478                   96.327                   195.69                   210.75                   219.55                   222.92
16.000                   3.0000                   1.0000                   6000.0                   2500.0                   15.000                   111.77                   167.03                   331.81                   358.31                   374.51                   379.76                   111.62                   166.74                   331.49                   358.11                   373.99                   379.38                   112.11                   167.53                   332.45                   359.05                   375.13                   380.50                   111.55                   166.27                   327.46                   352.99                   368.21                   373.37                   111.87                   166.89                   330.40                   356.65                   372.51                   377.74                   111.96                   167.25                   332.53                   358.88                   374.54                   379.78                   111.39                   166.05                   328.32                   354.20                   369.76                   374.95                   111.07                   165.89                   329.28                   355.26                   370.76                   375.86                   105.37                   155.13                   300.16                   322.74                   336.34                   341.13                   108.41                   153.15                   268.68                   285.64                   295.51                   299.07
16.000                   3.0000                   1.0000                   6000.0                   2500.0                   20.000                   171.22                   235.84                   421.58                   451.25                   469.10                   474.66                   171.05                   235.56                   420.66                   449.75                   467.05                   472.57                   171.55                   236.02                   419.74                   448.70                   465.95                   471.46                   170.57                   234.30                   415.60                   443.85                   460.52                   465.97                   171.13                   235.40                   420.72                   450.48                   468.24                   473.62                   171.15                   235.46                   419.13                   447.77                   464.85                   470.33                   170.39                   234.38                   418.80                   447.86                   465.06                   470.51                   169.34                   232.92                   415.66                   444.12                   460.69                   465.98                   159.78                   217.08                   377.89                   402.62                   417.32                   422.30                   160.90                   211.72                   338.35                   356.69                   367.46                   371.21
16.000                   3.0000                   1.0000                   6000.0                   2500.0                   25.000                   234.64                   305.88                   512.58                   546.00                   565.71                   571.63                   234.65                   306.07                   512.28                   544.75                   564.03                   569.83                   234.76                   305.40                   507.25                   539.17                   557.79                   563.48                   233.47                   303.62                   505.82                   538.12                   557.04                   562.85                   234.32                   305.22                   512.59                   546.67                   566.77                   572.39                   234.09                   304.61                   506.74                   538.66                   557.60                   563.37                   233.45                   304.32                   511.52                   544.81                   564.27                   570.03                   231.07                   300.57                   502.12                   534.02                   552.16                   557.69                   217.48                   279.72                   455.24                   482.59                   498.61                   503.77                   215.74                   270.15                   405.24                   424.77                   436.50                   440.40
16.000                   3.0000                   1.0000                   6000.0                   2500.0                   30.000                   299.38                   375.08                   601.00                   638.31                   660.00                   666.33                   299.86                   376.26                   603.49                   640.41                   662.27                   668.48                   299.15                   373.82                   593.42                   629.27                   649.65                   655.56                   297.76                   372.38                   594.80                   631.95                   653.64                   659.86                   298.81                   374.21                   601.14                   639.17                   661.51                   667.55                   298.28                   373.01                   593.96                   629.97                   651.08                   657.20                   298.02                   373.71                   601.33                   638.92                   660.79                   666.98                   293.87                   367.43                   587.66                   624.07                   644.44                   650.28                   276.46                   342.08                   532.83                   563.59                   581.44                   586.88                   271.07                   327.40                   469.33                   489.87                   502.41                   506.41
16.000                   3.0000                   1.0000                   6000.0                   2500.0                   35.000                   360.66                   440.05                   676.71                   715.91                   738.81                   745.33                   361.72                   442.13                   682.93                   723.50                   747.16                   753.50                   360.05                   438.21                   669.87                   709.09                   730.67                   736.63                   358.79                   437.21                   671.41                   710.88                   733.94                   740.44                   359.78                   438.63                   673.41                   711.61                   734.16                   740.53                   359.21                   437.76                   671.88                   710.19                   732.48                   738.81                   359.26                   438.67                   675.43                   713.92                   736.44                   743.00                   353.56                   431.11                   664.93                   704.85                   727.11                   733.24                   333.11                   402.71                   608.56                   642.69                   662.48                   668.25                   324.40                   382.92                   531.75                   552.97                   565.89                   570.05
16.000                   3.0000                   1.0000                   6000.0                   2500.0                   40.000                   418.48                   500.23                   745.03                   788.78                   813.42                   820.02                   420.25                   503.42                   756.89                   803.58                   829.10                   835.45                   417.59                   498.10                   739.17                   783.73                   806.91                   812.96                   416.62                   497.75                   742.23                   786.88                   811.75                   818.43                   417.39                   498.46                   738.99                   779.89                   803.25                   809.81                   416.89                   498.17                   744.14                   787.80                   811.88                   818.37                   417.20                   499.06                   742.63                   785.05                   809.16                   815.98                   410.15                   490.47                   733.28                   777.57                   801.71                   808.10                   387.32                   459.81                   674.00                   709.82                   730.87                   736.82                   376.22                   436.70                   591.20                   612.92                   625.86                   629.95
16.000                   3.0000                   1.0000                   6000.0                   2500.0                   45.000                   472.71                   555.77                   816.11                   865.59                   891.73                   898.09                   475.20                   559.93                   831.60                   884.00                   910.66                   916.77                   471.63                   553.60                   810.82                   861.18                   886.11                   892.13                   471.04                   553.89                   815.47                   866.03                   892.34                   898.83                   471.49                   553.86                   808.83                   855.15                   879.88                   886.29                   471.17                   554.17                   818.17                   868.15                   893.89                   900.24                   471.67                   554.93                   813.75                   861.99                   887.72                   894.36                   463.43                   545.52                   802.09                   851.39                   877.12                   883.49                   438.61                   512.95                   732.94                   771.57                   793.90                   799.89                   425.02                   486.95                   645.02                   667.46                   680.57                   684.51
16.000                   3.0000                   1.0000                   6000.0                   2500.0                   50.000                   522.67                   606.09                   898.93                   954.27                   980.94                   986.56                   525.78                   610.74                   912.42                   967.66                   993.98                   999.41                   521.53                   604.09                   893.20                   948.57                   975.28                   980.96                   521.36                   604.85                   898.44                   953.94                   980.61                   986.25                   521.39                   604.23                   892.78                   947.87                   974.57                   980.26                   521.36                   605.02                   900.52                   956.14                   982.83                   988.46                   521.92                   605.60                   898.51                   953.77                   980.45                   986.09                   512.75                   595.53                   879.32                   934.18                   960.95                   966.74                   486.11                   561.12                   787.51                   832.65                   856.85                   862.70                   469.08                   531.60                   690.08                   713.82                   727.69                   731.49
16.000                   3.0000                   1.0000                   6000.0                   2500.0                   55.000                   569.98                   652.71                   961.95                   1010.5                   1031.5                   1035.1                   573.52                   657.45                   969.90                   1016.6                   1036.2                   1039.4                   568.87                   650.87                   954.78                   1003.0                   1024.5                   1028.5                   569.06                   651.94                   959.21                   1007.0                   1028.1                   1031.8                   568.73                   651.02                   957.22                   1005.7                   1027.1                   1030.9                   568.97                   652.04                   961.23                   1009.3                   1030.3                   1034.0                   569.53                   652.52                   960.97                   1008.9                   1029.8                   1033.5                   559.65                   641.94                   945.44                   996.00                   1019.1                   1023.5                   531.28                   605.53                   842.92                   888.80                   912.41                   917.74                   510.97                   572.97                   726.27                   749.55                   763.37                   767.05
16.000                   3.0000                   1.0000                   6000.0                   2500.0                   60.000                   612.59                   693.30                   1000.3                   1038.0                   1051.7                   1053.2                   616.18                   697.40                   994.17                   1028.9                   1042.2                   1043.8                   611.51                   691.19                   983.37                   1020.6                   1035.9                   1038.2                   611.94                   692.26                   983.45                   1019.9                   1035.0                   1037.2                   611.44                   691.63                   986.40                   1022.7                   1037.2                   1039.2                   611.84                   692.40                   977.67                   1011.6                   1026.1                   1028.4                   612.33                   692.67                   975.07                   1008.9                   1023.5                   1025.9                   602.33                   683.15                   982.46                   1019.6                   1034.5                   1036.6                   572.62                   644.83                   888.93                   931.62                   952.90                   957.45                   549.79                   609.37                   754.98                   778.09                   791.64                   795.11
16.000                   3.0000                   1.0000                   6000.0                   2500.0                   65.000                   650.56                   728.52                   1038.2                   1067.1                   1075.2                   1075.0                   653.90                   731.04                   1004.1                   1029.8                   1039.2                   1040.0                   649.43                   725.18                   995.27                   1023.5                   1034.8                   1036.2                   649.95                   725.86                   992.19                   1020.5                   1032.2                   1033.7                   649.51                   726.27                   1002.8                   1029.6                   1039.4                   1040.3                   649.95                   726.27                   983.75                   1008.5                   1019.1                   1020.6                   650.31                   726.01                   975.74                   999.97                   1010.9                   1012.6                   640.81                   719.41                   1017.1                   1045.5                   1054.5                   1054.9                   610.16                   679.75                   926.64                   965.22                   984.21                   988.05                   585.52                   641.80                   781.98                   805.43                   818.75                   822.01
16.000                   3.0000                   1.0000                   6000.0                   2500.0                   70.000                   680.61                   759.87                   1057.8                   1079.9                   1085.3                   1084.4                   683.33                   760.17                   1013.1                   1034.1                   1041.4                   1041.7                   679.25                   753.52                   1004.4                   1027.5                   1036.3                   1037.0                   679.67                   753.47                   997.31                   1020.4                   1029.9                   1030.9                   679.62                   756.35                   1020.9                   1042.9                   1050.1                   1050.1                   679.92                   754.90                   993.17                   1013.2                   1021.5                   1022.3                   680.10                   753.62                   982.20                   1001.9                   1010.7                   1011.8                   672.05                   750.95                   1040.3                   1063.1                   1069.4                   1069.0                   641.41                   708.03                   952.53                   986.40                   1002.7                   1005.8                   615.75                   668.60                   807.74                   830.72                   843.47                   846.48
16.000                   3.0000                   1.0000                   6000.0                   2500.0                   75.000                   705.86                   791.04                   1069.5                   1086.5                   1090.1                   1088.8                   707.85                   789.14                   1022.9                   1040.3                   1046.0                   1045.8                   704.28                   781.68                   1015.0                   1034.1                   1040.8                   1041.0                   704.55                   780.72                   1003.6                   1022.5                   1030.1                   1030.6                   704.92                   786.66                   1037.7                   1055.8                   1060.9                   1060.2                   705.03                   783.51                   1004.6                   1021.2                   1027.5                   1027.8                   705.03                   781.16                   991.55                   1007.9                   1014.8                   1015.5                   698.86                   782.26                   1055.6                   1073.8                   1078.1                   1077.1                   669.36                   733.82                   972.72                   1001.7                   1015.1                   1017.3                   643.13                   692.53                   831.80                   853.83                   865.86                   868.59