% Model:              batchmodel_COIL_N_16_COIL_kr_3_COIL_kh_1_FUNZ_freq_2000_FUNZ_I_eff_1000.mph
% Version:            COMSOL 6.0.0.318
% Date:               Feb 8 2022, 23:01
% Table:              Tabella 1 - GRIGLIA_T
% COIL_N                 COIL_kr                  COIL_kh                  FUNZ_freq                FUNZ_I_eff               Time (s)                 Temperatura (degC), Point: (0, 0)Temperatura (degC), Point: (15, 0)Temperatura (degC), Point: (25.641, 0)Temperatura (degC), Point: (27.821, 0)Temperatura (degC), Point: (29.128, 0)Temperatura (degC), Point: (29.99, 0)Temperatura (degC), Point: (0, 62.5)Temperatura (degC), Point: (15, 62.5)Temperatura (degC), Point: (25.641, 62.5)Temperatura (degC), Point: (27.821, 62.5)Temperatura (degC), Point: (29.128, 62.5)Temperatura (degC), Point: (29.99, 62.5)Temperatura (degC), Point: (0, 125)Temperatura (degC), Point: (15, 125)Temperatura (degC), Point: (25.641, 125)Temperatura (degC), Point: (27.821, 125)Temperatura (degC), Point: (29.128, 125)Temperatura (degC), Point: (29.99, 125)Temperatura (degC), Point: (0, 187.5)Temperatura (degC), Point: (15, 187.5)Temperatura (degC), Point: (25.641, 187.5)Temperatura (degC), Point: (27.821, 187.5)Temperatura (degC), Point: (29.128, 187.5)Temperatura (degC), Point: (29.99, 187.5)Temperatura (degC), Point: (0, 250)Temperatura (degC), Point: (15, 250)Temperatura (degC), Point: (25.641, 250)Temperatura (degC), Point: (27.821, 250)Temperatura (degC), Point: (29.128, 250)Temperatura (degC), Point: (29.99, 250)Temperatura (degC), Point: (0, 312.5)Temperatura (degC), Point: (15, 312.5)Temperatura (degC), Point: (25.641, 312.5)Temperatura (degC), Point: (27.821, 312.5)Temperatura (degC), Point: (29.128, 312.5)Temperatura (degC), Point: (29.99, 312.5)Temperatura (degC), Point: (0, 375)Temperatura (degC), Point: (15, 375)Temperatura (degC), Point: (25.641, 375)Temperatura (degC), Point: (27.821, 375)Temperatura (degC), Point: (29.128, 375)Temperatura (degC), Point: (29.99, 375)Temperatura (degC), Point: (0, 437.5)Temperatura (degC), Point: (15, 437.5)Temperatura (degC), Point: (25.641, 437.5)Temperatura (degC), Point: (27.821, 437.5)Temperatura (degC), Point: (29.128, 437.5)Temperatura (degC), Point: (29.99, 437.5)Temperatura (degC), Point: (0, 468.75)Temperatura (degC), Point: (15, 468.75)Temperatura (degC), Point: (25.641, 468.75)Temperatura (degC), Point: (27.821, 468.75)Temperatura (degC), Point: (29.128, 468.75)Temperatura (degC), Point: (29.99, 468.75)Temperatura (degC), Point: (0, 492.19)Temperatura (degC), Point: (15, 492.19)Temperatura (degC), Point: (25.641, 492.19)Temperatura (degC), Point: (27.821, 492.19)Temperatura (degC), Point: (29.128, 492.19)Temperatura (degC), Point: (29.99, 492.19)
16.000                   3.0000                   1.0000                   2000.0                   1000.0                   0.0000                   20.000                   20.000                   20.000                   20.000                   20.000                   20.035                   20.000                   20.000                   20.000                   20.000                   20.000                   20.035                   20.000                   20.000                   20.000                   20.000                   20.000                   20.035                   20.000                   20.000                   20.000                   20.000                   20.000                   20.035                   20.000                   20.000                   20.000                   20.000                   20.000                   20.035                   20.000                   20.000                   20.000                   20.000                   20.000                   20.035                   20.000                   20.000                   20.000                   20.000                   20.000                   20.035                   20.000                   20.000                   20.000                   20.000                   20.000                   20.034                   20.000                   20.000                   20.000                   20.000                   20.000                   20.030                   20.000                   20.000                   20.000                   20.000                   20.000                   20.020
16.000                   3.0000                   1.0000                   2000.0                   1000.0                   5.0000                   21.666                   24.715                   36.727                   41.324                   43.735                   44.849                   21.666                   24.714                   36.734                   41.350                   43.756                   44.888                   21.666                   24.709                   36.701                   41.302                   43.679                   44.787                   21.664                   24.691                   36.543                   41.070                   43.382                   44.476                   21.644                   24.629                   36.252                   40.699                   43.010                   44.104                   21.642                   24.614                   36.114                   40.452                   42.800                   43.905                   21.628                   24.571                   35.927                   40.266                   42.563                   43.728                   21.497                   24.245                   35.067                   39.319                   41.575                   42.659                   21.147                   23.190                   31.040                   34.038                   35.914                   36.864                   21.162                   23.136                   29.303                   31.624                   32.910                   33.447
16.000                   3.0000                   1.0000                   2000.0                   1000.0                   10.000                   27.681                   34.739                   53.363                   58.977                   61.648                   62.813                   27.673                   34.702                   53.179                   58.743                   61.371                   62.527                   27.692                   34.743                   53.380                   59.040                   61.692                   62.845                   27.676                   34.676                   53.066                   58.657                   61.188                   62.352                   27.537                   34.356                   52.054                   57.404                   59.980                   61.123                   27.537                   34.353                   51.982                   57.271                   59.942                   61.107                   27.487                   34.264                   51.711                   57.003                   59.721                   61.089                   26.877                   33.230                   50.017                   55.283                   57.860                   59.037                   25.317                   29.996                   41.972                   45.645                   47.715                   48.711                   25.281                   29.938                   40.135                   43.222                   44.813                   45.375
16.000                   3.0000                   1.0000                   2000.0                   1000.0                   15.000                   36.476                   45.171                   63.448                   68.245                   70.830                   72.020                   36.463                   45.124                   63.290                   68.061                   70.621                   71.802                   36.521                   45.223                   63.529                   68.359                   70.945                   72.132                   36.481                   45.124                   63.251                   68.055                   70.587                   71.783                   36.158                   44.580                   62.158                   66.819                   69.373                   70.564                   36.152                   44.571                   62.113                   66.746                   69.346                   70.542                   36.095                   44.513                   62.042                   66.692                   69.332                   70.627                   34.740                   42.629                   59.347                   63.869                   66.352                   67.522                   31.609                   37.541                   50.031                   53.441                   55.451                   56.441                   30.989                   36.411                   46.270                   48.749                   50.092                   50.663
16.000                   3.0000                   1.0000                   2000.0                   1000.0                   20.000                   46.086                   54.793                   70.948                   74.968                   77.197                   78.258                   46.103                   54.830                   71.074                   75.134                   77.430                   78.470                   46.183                   54.922                   71.158                   75.189                   77.421                   78.462                   46.123                   54.816                   70.906                   74.886                   77.049                   78.076                   45.621                   54.108                   69.758                   73.640                   75.873                   76.897                   45.616                   54.118                   69.834                   73.745                   76.010                   77.042                   45.542                   54.044                   69.705                   73.562                   75.706                   76.735                   43.359                   51.368                   66.491                   70.417                   72.672                   73.684                   38.717                   44.935                   56.822                   59.932                   61.819                   62.764                   37.195                   42.474                   51.132                   53.128                   54.261                   54.762
16.000                   3.0000                   1.0000                   2000.0                   1000.0                   25.000                   55.978                   64.824                   81.672                   86.028                   88.214                   89.177                   56.021                   64.897                   81.846                   86.255                   88.545                   89.498                   56.124                   64.995                   81.884                   86.240                   88.439                   89.382                   56.119                   64.997                   81.870                   86.202                   88.396                   89.343                   55.366                   63.967                   80.091                   84.217                   86.420                   87.358                   55.411                   64.054                   80.282                   84.418                   86.666                   87.594                   55.320                   63.981                   80.209                   84.333                   86.360                   87.337                   52.151                   60.260                   75.832                   80.036                   82.281                   83.185                   46.201                   52.549                   64.688                   67.905                   69.824                   70.771                   44.136                   49.738                   59.107                   61.440                   62.671                   63.161
16.000                   3.0000                   1.0000                   2000.0                   1000.0                   30.000                   65.973                   75.070                   93.173                   98.024                   100.30                   101.21                   66.033                   75.144                   93.277                   98.172                   100.56                   101.49                   66.164                   75.263                   93.317                   98.149                   100.45                   101.35                   66.240                   75.417                   93.660                   98.526                   100.95                   101.88                   65.211                   74.012                   91.149                   95.699                   97.999                   98.918                   65.318                   74.193                   91.446                   95.965                   98.308                   99.190                   65.215                   74.132                   91.500                   96.094                   98.146                   99.146                   61.003                   69.265                   85.646                   90.192                   92.485                   93.323                   53.790                   60.262                   72.793                   76.153                   78.139                   79.109                   51.307                   57.342                   67.735                   70.478                   71.832                   72.347
16.000                   3.0000                   1.0000                   2000.0                   1000.0                   35.000                   75.249                   83.918                   100.55                   104.93                   107.34                   108.41                   75.311                   83.989                   100.65                   105.05                   107.51                   108.59                   75.475                   84.149                   100.76                   105.14                   107.56                   108.63                   75.594                   84.338                   101.08                   105.48                   107.95                   109.04                   74.436                   82.899                   98.988                   103.22                   105.63                   106.71                   74.575                   83.096                   99.266                   103.48                   105.92                   106.98                   74.429                   82.976                   99.210                   103.46                   105.77                   106.88                   69.232                   77.157                   92.411                   96.514                   98.848                   99.859                   60.975                   67.244                   79.229                   82.425                   84.389                   85.362                   57.555                   62.925                   71.914                   74.133                   75.335                   75.874
16.000                   3.0000                   1.0000                   2000.0                   1000.0                   40.000                   84.637                   93.030                   108.72                   112.80                   115.35                   116.58                   84.697                   93.092                   108.80                   112.89                   115.44                   116.67                   84.900                   93.301                   109.00                   113.09                   115.63                   116.86                   85.050                   93.504                   109.26                   113.35                   115.90                   117.13                   83.777                   92.039                   107.53                   111.59                   114.14                   115.37                   83.951                   92.258                   107.80                   111.86                   114.41                   115.64                   83.744                   92.055                   107.61                   111.68                   114.25                   115.49                   77.562                   85.284                   99.857                   103.69                   106.08                   107.25                   68.222                   74.354                   85.984                   89.074                   91.029                   92.006                   63.905                   68.763                   76.734                   78.593                   79.708                   80.271
16.000                   3.0000                   1.0000                   2000.0                   1000.0                   45.000                   94.489                   103.21                   120.06                   124.54                   127.24                   128.57                   94.532                   103.23                   120.08                   124.60                   127.32                   128.66                   94.792                   103.52                   120.41                   124.90                   127.57                   128.91                   94.931                   103.67                   120.51                   124.97                   127.64                   129.00                   93.586                   102.19                   118.89                   123.37                   126.07                   127.41                   93.805                   102.45                   119.19                   123.66                   126.38                   127.74                   93.476                   102.08                   118.76                   123.32                   126.18                   127.53                   86.312                   94.343                   110.00                   114.22                   116.74                   118.02                   75.725                   81.985                   94.018                   97.242                   99.241                   100.22                   70.697                   75.679                   84.217                   86.372                   87.665                   88.246
16.000                   3.0000                   1.0000                   2000.0                   1000.0                   50.000                   103.98                   112.72                   129.73                   134.28                   137.03                   138.38                   104.01                   112.73                   129.73                   134.32                   137.08                   138.45                   104.31                   113.08                   130.14                   134.69                   137.41                   138.77                   104.43                   113.18                   130.16                   134.68                   137.40                   138.77                   103.07                   111.72                   128.65                   133.21                   135.96                   137.32                   103.31                   112.01                   128.96                   133.51                   136.28                   137.65                   102.85                   111.48                   128.33                   132.97                   135.89                   137.26                   94.736                   102.81                   118.62                   122.91                   125.47                   126.76                   83.012                   89.268                   101.34                   104.59                   106.60                   107.59                   77.151                   82.008                   90.433                   92.590                   93.891                   94.471
16.000                   3.0000                   1.0000                   2000.0                   1000.0                   55.000                   113.03                   121.45                   137.42                   141.64                   144.31                   145.58                   113.05                   121.46                   137.43                   141.66                   144.33                   145.61                   113.40                   121.84                   137.86                   142.08                   144.74                   146.02                   113.47                   121.91                   137.89                   142.11                   144.77                   146.05                   112.15                   120.54                   136.50                   140.73                   143.40                   144.68                   112.39                   120.81                   136.79                   141.02                   143.69                   144.97                   111.79                   120.14                   136.01                   140.24                   142.95                   144.22                   102.77                   110.57                   125.44                   129.38                   131.87                   133.08                   90.040                   96.138                   107.82                   110.95                   112.95                   113.93                   83.201                   87.635                   95.134                   96.942                   98.048                   98.602
16.000                   3.0000                   1.0000                   2000.0                   1000.0                   60.000                   121.78                   130.00                   145.55                   149.68                   152.33                   153.58                   121.81                   130.02                   145.57                   149.70                   152.36                   153.61                   122.17                   130.40                   145.98                   150.11                   152.76                   154.01                   122.20                   130.43                   145.99                   150.13                   152.77                   154.02                   120.95                   129.15                   144.71                   148.84                   151.49                   152.74                   121.17                   129.38                   144.95                   149.09                   151.74                   152.98                   120.42                   128.58                   144.04                   148.15                   150.79                   152.03                   110.50                   118.11                   132.57                   136.42                   138.89                   140.07                   96.859                   102.85                   114.37                   117.49                   119.49                   120.48                   89.153                   93.334                   100.42                   102.12                   103.17                   103.72
16.000                   3.0000                   1.0000                   2000.0                   1000.0                   65.000                   130.40                   138.46                   153.87                   158.02                   160.68                   161.93                   130.43                   138.49                   153.90                   158.06                   160.74                   161.98                   130.81                   138.87                   154.28                   158.42                   161.07                   162.32                   130.80                   138.86                   154.26                   158.40                   161.05                   162.30                   129.61                   137.66                   153.06                   157.21                   159.87                   161.11                   129.80                   137.85                   153.25                   157.40                   160.06                   161.30                   128.92                   136.92                   152.23                   156.34                   158.97                   160.22                   118.10                   125.55                   139.85                   143.70                   146.18                   147.35                   103.59                   109.49                   120.96                   124.10                   126.12                   127.11                   95.060                   99.066                   105.97                   107.67                   108.73                   109.28
16.000                   3.0000                   1.0000                   2000.0                   1000.0                   70.000                   138.90                   146.93                   162.36                   166.55                   169.23                   170.48                   138.93                   146.96                   162.39                   166.58                   169.28                   170.52                   139.29                   147.32                   162.74                   166.90                   169.57                   170.82                   139.26                   147.27                   162.67                   166.84                   169.52                   170.76                   138.13                   146.15                   161.56                   165.73                   168.41                   169.66                   138.27                   146.28                   161.68                   165.86                   168.54                   169.78                   137.23                   145.20                   160.52                   164.66                   167.31                   168.55                   125.54                   132.96                   147.26                   151.13                   153.62                   154.80                   110.22                   116.10                   127.60                   130.76                   132.80                   133.81                   101.05                   104.99                   111.85                   113.56                   114.62                   115.18
16.000                   3.0000                   1.0000                   2000.0                   1000.0                   75.000                   147.39                   155.39                   170.87                   175.09                   177.80                   179.05                   147.42                   155.42                   170.89                   175.11                   177.83                   179.07                   147.77                   155.76                   171.20                   175.39                   178.08                   179.33                   147.70                   155.68                   171.10                   175.30                   178.00                   179.24                   146.64                   154.63                   170.07                   174.27                   176.96                   178.21                   146.72                   154.70                   170.13                   174.33                   177.03                   178.27                   145.53                   153.48                   168.82                   172.99                   175.65                   176.90                   132.97                   140.36                   154.68                   158.58                   161.08                   162.27                   116.84                   122.71                   134.25                   137.44                   139.49                   140.50                   107.05                   110.94                   117.76                   119.47                   120.54                   121.10