% Model:              batchmodel_COIL_N_16_COIL_kr_1.5_COIL_kh_2_FUNZ_freq_2000_FUNZ_I_eff_1000.mph
% Version:            COMSOL 6.0.0.318
% Date:               Feb 8 2022, 21:19
% Table:              Tabella 1 - GRIGLIA_T
% COIL_N                 COIL_kr                  COIL_kh                  FUNZ_freq                FUNZ_I_eff               Time (s)                 Temperatura (degC), Point: (0, 0)Temperatura (degC), Point: (15, 0)Temperatura (degC), Point: (25.641, 0)Temperatura (degC), Point: (27.821, 0)Temperatura (degC), Point: (29.128, 0)Temperatura (degC), Point: (29.99, 0)Temperatura (degC), Point: (0, 62.5)Temperatura (degC), Point: (15, 62.5)Temperatura (degC), Point: (25.641, 62.5)Temperatura (degC), Point: (27.821, 62.5)Temperatura (degC), Point: (29.128, 62.5)Temperatura (degC), Point: (29.99, 62.5)Temperatura (degC), Point: (0, 125)Temperatura (degC), Point: (15, 125)Temperatura (degC), Point: (25.641, 125)Temperatura (degC), Point: (27.821, 125)Temperatura (degC), Point: (29.128, 125)Temperatura (degC), Point: (29.99, 125)Temperatura (degC), Point: (0, 187.5)Temperatura (degC), Point: (15, 187.5)Temperatura (degC), Point: (25.641, 187.5)Temperatura (degC), Point: (27.821, 187.5)Temperatura (degC), Point: (29.128, 187.5)Temperatura (degC), Point: (29.99, 187.5)Temperatura (degC), Point: (0, 250)Temperatura (degC), Point: (15, 250)Temperatura (degC), Point: (25.641, 250)Temperatura (degC), Point: (27.821, 250)Temperatura (degC), Point: (29.128, 250)Temperatura (degC), Point: (29.99, 250)Temperatura (degC), Point: (0, 312.5)Temperatura (degC), Point: (15, 312.5)Temperatura (degC), Point: (25.641, 312.5)Temperatura (degC), Point: (27.821, 312.5)Temperatura (degC), Point: (29.128, 312.5)Temperatura (degC), Point: (29.99, 312.5)Temperatura (degC), Point: (0, 375)Temperatura (degC), Point: (15, 375)Temperatura (degC), Point: (25.641, 375)Temperatura (degC), Point: (27.821, 375)Temperatura (degC), Point: (29.128, 375)Temperatura (degC), Point: (29.99, 375)Temperatura (degC), Point: (0, 437.5)Temperatura (degC), Point: (15, 437.5)Temperatura (degC), Point: (25.641, 437.5)Temperatura (degC), Point: (27.821, 437.5)Temperatura (degC), Point: (29.128, 437.5)Temperatura (degC), Point: (29.99, 437.5)Temperatura (degC), Point: (0, 468.75)Temperatura (degC), Point: (15, 468.75)Temperatura (degC), Point: (25.641, 468.75)Temperatura (degC), Point: (27.821, 468.75)Temperatura (degC), Point: (29.128, 468.75)Temperatura (degC), Point: (29.99, 468.75)Temperatura (degC), Point: (0, 492.19)Temperatura (degC), Point: (15, 492.19)Temperatura (degC), Point: (25.641, 492.19)Temperatura (degC), Point: (27.821, 492.19)Temperatura (degC), Point: (29.128, 492.19)Temperatura (degC), Point: (29.99, 492.19)
16.000                   1.5000                   2.0000                   2000.0                   1000.0                   0.0000                   20.000                   20.000                   20.000                   20.000                   20.000                   20.034                   20.000                   20.000                   20.000                   20.000                   20.000                   20.034                   20.000                   20.000                   20.000                   20.000                   20.000                   20.035                   20.000                   20.000                   20.000                   20.000                   20.000                   20.035                   20.000                   20.000                   20.000                   20.000                   20.000                   20.035                   20.000                   20.000                   20.000                   20.000                   20.001                   20.035                   20.000                   20.000                   20.000                   20.000                   20.001                   20.035                   20.000                   20.000                   20.000                   20.000                   20.001                   20.036                   20.000                   20.000                   20.000                   20.000                   20.001                   20.037                   20.000                   20.000                   20.000                   20.000                   20.000                   20.029
16.000                   1.5000                   2.0000                   2000.0                   1000.0                   5.0000                   21.055                   23.006                   31.635                   34.937                   37.096                   38.217                   21.056                   23.010                   31.653                   34.961                   37.126                   38.247                   21.058                   23.015                   31.668                   34.979                   37.146                   38.265                   21.057                   23.015                   31.692                   35.017                   37.193                   38.318                   21.060                   23.028                   31.757                   35.104                   37.295                   38.430                   21.062                   23.036                   31.812                   35.181                   37.390                   38.527                   21.066                   23.053                   31.903                   35.307                   37.539                   38.693                   21.063                   23.051                   31.910                   35.317                   37.553                   38.701                   21.035                   23.034                   32.134                   35.653                   37.955                   39.117                   20.922                   22.522                   29.197                   31.739                   33.399                   34.294
16.000                   1.5000                   2.0000                   2000.0                   1000.0                   10.000                   25.313                   29.898                   41.313                   44.773                   47.039                   48.191                   25.320                   29.910                   41.339                   44.803                   47.072                   48.226                   25.329                   29.927                   41.377                   44.848                   47.123                   48.280                   25.326                   29.929                   41.411                   44.897                   47.183                   48.344                   25.337                   29.956                   41.490                   44.996                   47.297                   48.465                   25.342                   29.974                   41.563                   45.093                   47.411                   48.588                   25.358                   30.014                   41.685                   45.244                   47.583                   48.769                   25.339                   29.999                   41.708                   45.291                   47.650                   48.847                   25.147                   29.790                   41.736                   45.465                   47.941                   49.198                   24.565                   28.318                   37.283                   39.957                   41.703                   42.621
16.000                   1.5000                   2.0000                   2000.0                   1000.0                   15.000                   31.569                   37.623                   50.461                   54.049                   56.369                   57.533                   31.577                   37.635                   50.484                   54.075                   56.397                   57.563                   31.594                   37.665                   50.542                   54.143                   56.472                   57.641                   31.595                   37.675                   50.591                   54.207                   56.547                   57.721                   31.610                   37.705                   50.669                   54.304                   56.658                   57.838                   31.617                   37.730                   50.755                   54.414                   56.785                   57.976                   31.640                   37.780                   50.881                   54.568                   56.959                   58.157                   31.593                   37.751                   50.930                   54.650                   57.065                   58.277                   31.084                   37.179                   50.563                   54.437                   56.981                   58.264                   29.928                   34.873                   44.945                   47.705                   49.487                   50.412
16.000                   1.5000                   2.0000                   2000.0                   1000.0                   20.000                   38.455                   45.595                   59.469                   63.165                   65.528                   66.702                   38.461                   45.602                   59.479                   63.177                   65.542                   66.718                   38.485                   45.641                   59.551                   63.259                   65.631                   66.809                   38.492                   45.660                   59.612                   63.335                   65.718                   66.902                   38.512                   45.697                   59.699                   63.442                   65.839                   67.029                   38.521                   45.728                   59.796                   63.564                   65.978                   67.178                   38.548                   45.777                   59.907                   63.699                   66.133                   67.341                   38.471                   45.742                   60.010                   63.846                   66.309                   67.530                   37.583                   44.743                   59.164                   63.153                   65.748                   67.048                   35.834                   41.634                   52.427                   55.244                   57.051                   57.979
16.000                   1.5000                   2.0000                   2000.0                   1000.0                   25.000                   46.935                   54.255                   68.347                   72.094                   74.485                   75.666                   46.960                   54.281                   68.378                   72.128                   74.521                   75.704                   47.134                   54.501                   68.663                   72.426                   74.826                   76.011                   47.153                   54.537                   68.750                   72.529                   74.940                   76.131                   47.022                   54.388                   68.608                   72.402                   74.827                   76.024                   47.008                   54.394                   68.678                   72.497                   74.940                   76.146                   47.040                   54.450                   68.800                   72.645                   75.107                   76.322                   46.899                   54.377                   68.905                   72.796                   75.285                   76.512                   45.476                   52.798                   67.411                   71.444                   74.060                   75.361                   43.276                   49.220                   60.169                   63.016                   64.835                   65.766
16.000                   1.5000                   2.0000                   2000.0                   1000.0                   30.000                   55.415                   62.915                   77.224                   81.023                   83.442                   84.630                   55.458                   62.960                   77.277                   81.079                   83.501                   84.690                   55.784                   63.361                   77.776                   81.592                   84.021                   85.213                   55.814                   63.414                   77.889                   81.723                   84.163                   85.360                   55.533                   63.078                   77.516                   81.362                   83.815                   85.019                   55.494                   63.059                   77.561                   81.431                   83.901                   85.114                   55.533                   63.123                   77.694                   81.591                   84.082                   85.303                   55.327                   63.011                   77.800                   81.745                   84.262                   85.494                   53.370                   60.853                   75.658                   79.735                   82.372                   83.675                   50.719                   56.805                   67.912                   70.787                   72.620                   73.553
16.000                   1.5000                   2.0000                   2000.0                   1000.0                   35.000                   63.895                   71.574                   86.102                   89.952                   92.399                   93.595                   63.956                   71.639                   86.177                   90.030                   92.480                   93.676                   64.433                   72.221                   86.889                   90.759                   93.216                   94.415                   64.475                   72.291                   87.027                   90.916                   93.385                   94.589                   64.043                   71.769                   86.425                   90.322                   92.803                   94.014                   63.980                   71.724                   86.443                   90.365                   92.863                   94.082                   64.025                   71.795                   86.588                   90.537                   93.056                   94.284                   63.756                   71.646                   86.694                   90.695                   93.238                   94.476                   61.263                   68.908                   83.905                   88.026                   90.684                   91.988                   58.161                   64.390                   75.655                   78.559                   80.405                   81.339
16.000                   1.5000                   2.0000                   2000.0                   1000.0                   40.000                   72.673                   80.434                   95.123                   99.025                   101.50                   102.71                   72.771                   80.538                   95.239                   99.145                   101.63                   102.83                   73.474                   81.374                   96.238                   100.16                   102.65                   103.86                   73.515                   81.442                   96.376                   100.32                   102.82                   104.04                   72.867                   80.676                   95.494                   99.443                   101.96                   103.18                   72.760                   80.585                   95.464                   99.437                   101.97                   103.20                   72.819                   80.674                   95.637                   99.639                   102.19                   103.43                   72.446                   80.436                   95.674                   99.728                   102.30                   103.55                   69.444                   77.165                   92.308                   96.476                   99.164                   100.47                   65.991                   72.294                   83.692                   86.633                   88.500                   89.440
16.000                   1.5000                   2.0000                   2000.0                   1000.0                   45.000                   81.525                   89.343                   104.18                   108.13                   110.65                   111.86                   81.664                   89.491                   104.34                   108.30                   110.82                   112.03                   82.614                   90.601                   105.65                   109.62                   112.15                   113.37                   82.649                   90.661                   105.78                   109.78                   112.31                   113.54                   81.769                   89.636                   104.60                   108.60                   111.15                   112.38                   81.614                   89.495                   104.52                   108.54                   111.11                   112.35                   81.688                   89.605                   104.72                   108.78                   111.37                   112.61                   81.202                   89.266                   104.68                   108.78                   111.39                   112.65                   77.698                   85.473                   100.75                   104.97                   107.69                   109.00                   73.917                   80.277                   91.804                   94.782                   96.673                   97.619
16.000                   1.5000                   2.0000                   2000.0                   1000.0                   50.000                   90.377                   98.253                   113.24                   117.24                   119.79                   121.01                   90.558                   98.445                   113.45                   117.46                   120.01                   121.23                   91.753                   99.828                   115.05                   119.09                   121.65                   122.87                   91.783                   99.880                   115.18                   119.23                   121.81                   123.04                   90.672                   98.597                   113.71                   117.76                   120.35                   121.59                   90.467                   98.406                   113.58                   117.65                   120.25                   121.50                   90.556                   98.536                   113.81                   117.92                   120.54                   121.80                   89.958                   98.095                   113.68                   117.84                   120.48                   121.75                   85.951                   93.780                   109.19                   113.46                   116.21                   117.53                   81.843                   88.261                   99.915                   102.93                   104.85                   105.80
16.000                   1.5000                   2.0000                   2000.0                   1000.0                   55.000                   99.331                   107.28                   122.43                   126.48                   129.07                   130.30                   99.561                   107.52                   122.69                   126.75                   129.34                   130.57                   101.01                   109.18                   124.59                   128.68                   131.27                   132.51                   101.04                   109.22                   124.71                   128.82                   131.43                   132.67                   99.683                   107.68                   122.96                   127.07                   129.68                   130.93                   99.421                   107.43                   122.77                   126.90                   129.53                   130.79                   99.520                   107.57                   123.02                   127.19                   129.84                   131.11                   98.754                   106.96                   122.71                   126.92                   129.60                   130.87                   94.333                   102.23                   117.80                   122.12                   124.90                   126.23                   89.968                   96.448                   108.24                   111.30                   113.23                   114.19
16.000                   1.5000                   2.0000                   2000.0                   1000.0                   60.000                   108.35                   116.37                   131.71                   135.82                   138.44                   139.68                   108.64                   116.67                   132.02                   136.14                   138.76                   140.01                   110.36                   118.61                   134.21                   138.36                   140.99                   142.23                   110.37                   118.65                   134.33                   138.49                   141.14                   142.39                   108.77                   116.84                   132.31                   136.47                   139.12                   140.38                   108.44                   116.53                   132.05                   136.23                   138.90                   140.17                   108.55                   116.68                   132.32                   136.54                   139.23                   140.50                   107.58                   115.85                   131.76                   136.02                   138.73                   140.02                   102.80                   110.77                   126.52                   130.89                   133.71                   135.04                   98.226                   104.77                   116.71                   119.81                   121.76                   122.73
16.000                   1.5000                   2.0000                   2000.0                   1000.0                   65.000                   117.37                   125.47                   140.99                   145.15                   147.81                   149.06                   117.71                   125.83                   141.36                   145.53                   148.19                   149.44                   119.70                   128.04                   143.84                   148.03                   150.70                   151.95                   119.71                   128.07                   143.95                   148.17                   150.85                   152.11                   117.85                   126.00                   141.65                   145.86                   148.55                   149.82                   117.46                   125.63                   141.33                   145.56                   148.27                   149.55                   117.58                   125.79                   141.61                   145.88                   148.61                   149.90                   116.40                   124.74                   140.81                   145.12                   147.87                   149.16                   111.27                   119.31                   135.24                   139.66                   142.51                   143.86                   106.48                   113.10                   125.19                   128.32                   130.29                   131.26
16.000                   1.5000                   2.0000                   2000.0                   1000.0                   70.000                   126.39                   134.57                   150.26                   154.49                   157.18                   158.44                   126.79                   134.98                   150.70                   154.92                   157.61                   158.88                   129.04                   137.47                   153.46                   157.71                   160.41                   161.67                   129.04                   137.50                   153.57                   157.84                   160.56                   161.83                   126.93                   135.16                   150.99                   155.26                   157.99                   159.26                   126.48                   134.72                   150.61                   154.90                   157.64                   158.93                   126.60                   134.90                   150.91                   155.23                   158.00                   159.29                   125.22                   133.63                   149.86                   154.22                   157.01                   158.31                   119.74                   127.85                   143.95                   148.43                   151.32                   152.67                   114.74                   121.42                   133.66                   136.83                   138.83                   139.80
16.000                   1.5000                   2.0000                   2000.0                   1000.0                   75.000                   135.41                   143.67                   159.54                   163.82                   166.55                   167.82                   135.87                   144.13                   160.03                   164.31                   167.04                   168.31                   138.39                   146.90                   163.08                   167.39                   170.12                   171.39                   138.38                   146.92                   163.19                   167.52                   170.27                   171.54                   136.02                   144.33                   160.34                   164.66                   167.42                   168.71                   135.51                   143.82                   159.89                   164.23                   167.01                   168.31                   135.63                   144.00                   160.20                   164.58                   167.38                   168.68                   134.05                   142.52                   158.91                   163.32                   166.14                   167.45                   128.20                   136.39                   152.67                   157.20                   160.13                   161.49                   123.00                   129.74                   142.13                   145.34                   147.36                   148.34