% Model:              batchmodel_COIL_N_16_COIL_kr_2.25_COIL_kh_2_FUNZ_freq_10000_FUNZ_I_eff_4000.mph
% Version:            COMSOL 6.0.0.318
% Date:               Feb 8 2022, 23:23
% Table:              Tabella 1 - GRIGLIA_T
% COIL_N                 COIL_kr                  COIL_kh                  FUNZ_freq                FUNZ_I_eff               Time (s)                 Temperatura (degC), Point: (0, 0)Temperatura (degC), Point: (15, 0)Temperatura (degC), Point: (28.051, 0)Temperatura (degC), Point: (29.025, 0)Temperatura (degC), Point: (29.61, 0)Temperatura (degC), Point: (29.99, 0)Temperatura (degC), Point: (0, 62.5)Temperatura (degC), Point: (15, 62.5)Temperatura (degC), Point: (28.051, 62.5)Temperatura (degC), Point: (29.025, 62.5)Temperatura (degC), Point: (29.61, 62.5)Temperatura (degC), Point: (29.99, 62.5)Temperatura (degC), Point: (0, 125)Temperatura (degC), Point: (15, 125)Temperatura (degC), Point: (28.051, 125)Temperatura (degC), Point: (29.025, 125)Temperatura (degC), Point: (29.61, 125)Temperatura (degC), Point: (29.99, 125)Temperatura (degC), Point: (0, 187.5)Temperatura (degC), Point: (15, 187.5)Temperatura (degC), Point: (28.051, 187.5)Temperatura (degC), Point: (29.025, 187.5)Temperatura (degC), Point: (29.61, 187.5)Temperatura (degC), Point: (29.99, 187.5)Temperatura (degC), Point: (0, 250)Temperatura (degC), Point: (15, 250)Temperatura (degC), Point: (28.051, 250)Temperatura (degC), Point: (29.025, 250)Temperatura (degC), Point: (29.61, 250)Temperatura (degC), Point: (29.99, 250)Temperatura (degC), Point: (0, 312.5)Temperatura (degC), Point: (15, 312.5)Temperatura (degC), Point: (28.051, 312.5)Temperatura (degC), Point: (29.025, 312.5)Temperatura (degC), Point: (29.61, 312.5)Temperatura (degC), Point: (29.99, 312.5)Temperatura (degC), Point: (0, 375)Temperatura (degC), Point: (15, 375)Temperatura (degC), Point: (28.051, 375)Temperatura (degC), Point: (29.025, 375)Temperatura (degC), Point: (29.61, 375)Temperatura (degC), Point: (29.99, 375)Temperatura (degC), Point: (0, 437.5)Temperatura (degC), Point: (15, 437.5)Temperatura (degC), Point: (28.051, 437.5)Temperatura (degC), Point: (29.025, 437.5)Temperatura (degC), Point: (29.61, 437.5)Temperatura (degC), Point: (29.99, 437.5)Temperatura (degC), Point: (0, 468.75)Temperatura (degC), Point: (15, 468.75)Temperatura (degC), Point: (28.051, 468.75)Temperatura (degC), Point: (29.025, 468.75)Temperatura (degC), Point: (29.61, 468.75)Temperatura (degC), Point: (29.99, 468.75)Temperatura (degC), Point: (0, 492.19)Temperatura (degC), Point: (15, 492.19)Temperatura (degC), Point: (28.051, 492.19)Temperatura (degC), Point: (29.025, 492.19)Temperatura (degC), Point: (29.61, 492.19)Temperatura (degC), Point: (29.99, 492.19)
16.000                   2.2500                   2.0000                   10000                    4000.0                   0.0000                   20.000                   20.000                   20.000                   20.000                   20.219                   20.786                   20.000                   20.000                   20.000                   20.000                   20.219                   20.786                   20.000                   20.000                   20.000                   20.000                   20.219                   20.786                   20.000                   20.000                   20.000                   20.000                   20.219                   20.787                   20.000                   20.000                   20.000                   20.000                   20.220                   20.788                   20.000                   20.000                   20.000                   20.000                   20.220                   20.789                   20.000                   20.000                   20.000                   20.000                   20.221                   20.790                   20.000                   20.000                   20.000                   20.000                   20.221                   20.791                   20.000                   20.000                   20.000                   20.000                   20.222                   20.793                   20.000                   20.000                   20.000                   20.000                   20.197                   20.737
16.000                   2.2500                   2.0000                   10000                    4000.0                   5.0000                   34.683                   91.231                   475.84                   545.25                   585.74                   597.20                   34.596                   91.406                   477.42                   547.72                   587.50                   598.76                   34.655                   91.594                   472.28                   540.09                   579.74                   591.02                   34.596                   91.333                   471.03                   538.55                   576.30                   587.18                   34.597                   91.374                   472.74                   540.59                   579.30                   590.40                   34.606                   91.301                   469.20                   535.80                   573.72                   584.76                   34.651                   91.693                   476.47                   545.37                   584.04                   595.02                   34.575                   91.126                   464.74                   528.20                   564.07                   574.89                   34.409                   90.135                   462.22                   528.09                   565.88                   576.71                   46.524                   101.20                   410.03                   460.97                   490.58                   499.30
16.000                   2.2500                   2.0000                   10000                    4000.0                   10.000                   125.06                   249.77                   826.71                   943.64                   995.31                   1006.7                   124.98                   249.86                   826.56                   942.83                   994.59                   1006.0                   125.14                   249.72                   821.91                   938.28                   990.36                   1001.9                   124.79                   249.17                   820.17                   935.81                   987.98                   999.58                   124.82                   249.51                   825.95                   942.91                   995.03                   1006.5                   124.90                   249.53                   826.60                   943.54                   995.69                   1007.2                   125.13                   250.11                   829.88                   947.37                   999.51                   1011.0                   124.50                   248.66                   822.02                   938.87                   991.46                   1003.1                   123.20                   244.81                   799.23                   912.93                   965.68                   977.68                   142.59                   255.05                   684.37                   749.99                   786.44                   796.13
16.000                   2.2500                   2.0000                   10000                    4000.0                   15.000                   252.06                   399.34                   904.34                   950.68                   971.04                   975.47                   251.98                   401.23                   1119.8                   1166.4                   1177.3                   1177.4                   251.95                   398.44                   893.94                   943.38                   965.61                   970.44                   251.48                   398.95                   1017.2                   1077.8                   1095.2                   1097.2                   251.71                   401.06                   1119.2                   1165.3                   1176.1                   1176.2                   251.71                   397.71                   913.09                   970.88                   997.09                   1002.8                   252.10                   400.80                   1043.9                   1098.8                   1113.1                   1114.3                   250.89                   396.39                   917.29                   980.31                   1008.9                   1015.0                   247.95                   392.64                   947.21                   1007.4                   1030.3                   1034.5                   257.32                   388.46                   819.11                   882.13                   913.45                   920.83
16.000                   2.2500                   2.0000                   10000                    4000.0                   20.000                   369.04                   514.96                   975.10                   1007.2                   1019.8                   1021.9                   369.14                   520.41                   1144.8                   1169.0                   1173.8                   1172.9                   368.57                   512.47                   944.05                   976.03                   990.32                   993.29                   368.26                   516.18                   1098.5                   1129.3                   1136.5                   1136.2                   368.97                   519.17                   1121.2                   1147.3                   1152.8                   1152.0                   367.93                   509.62                   954.14                   992.91                   1009.7                   1013.0                   369.38                   518.14                   1081.0                   1112.5                   1120.2                   1120.1                   366.81                   506.78                   936.46                   978.06                   997.59                   1001.8                   364.02                   510.61                   1033.6                   1069.5                   1079.3                   1079.8                   363.30                   491.95                   878.00                   923.48                   945.84                   950.95
16.000                   2.2500                   2.0000                   10000                    4000.0                   25.000                   465.24                   602.54                   1060.4                   1084.5                   1090.4                   1090.0                   465.41                   608.54                   1133.0                   1149.8                   1152.8                   1151.5                   464.43                   599.06                   1019.6                   1046.7                   1055.3                   1055.9                   464.41                   604.36                   1111.6                   1131.6                   1135.7                   1134.7                   465.31                   606.50                   1111.6                   1130.2                   1133.9                   1132.8                   463.39                   595.48                   1014.6                   1044.5                   1054.4                   1055.4                   465.80                   605.60                   1096.0                   1117.1                   1121.7                   1121.0                   461.96                   591.35                   974.67                   1003.0                   1015.1                   1017.3                   460.76                   601.42                   1086.5                   1106.8                   1111.1                   1110.3                   452.47                   573.52                   934.17                   968.85                   985.73                   989.47
16.000                   2.2500                   2.0000                   10000                    4000.0                   30.000                   541.08                   667.57                   1090.9                   1107.1                   1110.3                   1109.3                   541.17                   672.28                   1119.4                   1132.7                   1134.8                   1133.5                   540.12                   664.25                   1074.6                   1093.2                   1097.5                   1096.7                   540.26                   668.90                   1108.9                   1123.6                   1126.3                   1125.1                   541.19                   670.59                   1108.6                   1122.9                   1125.3                   1124.1                   538.97                   660.80                   1065.9                   1086.2                   1091.2                   1090.7                   541.74                   670.13                   1101.7                   1116.9                   1119.8                   1118.6                   537.40                   656.66                   1043.7                   1065.3                   1071.6                   1071.7                   537.53                   668.49                   1103.7                   1118.0                   1120.5                   1119.3                   524.99                   638.77                   1019.7                   1045.2                   1054.4                   1055.4
16.000                   2.2500                   2.0000                   10000                    4000.0                   35.000                   603.41                   720.02                   1107.8                   1119.3                   1121.0                   1119.7                   603.34                   723.40                   1118.0                   1128.5                   1129.9                   1128.4                   602.46                   717.32                   1101.8                   1114.1                   1116.2                   1114.9                   602.61                   720.87                   1113.3                   1124.4                   1126.0                   1124.6                   603.51                   722.27                   1113.9                   1124.8                   1126.3                   1124.9                   601.37                   714.38                   1097.5                   1110.6                   1113.0                   1111.8                   604.06                   722.24                   1111.8                   1122.9                   1124.5                   1123.1                   599.87                   710.66                   1090.5                   1104.7                   1107.5                   1106.4                   600.71                   722.01                   1115.0                   1125.6                   1127.0                   1125.5                   586.95                   695.94                   1096.0                   1111.7                   1114.8                   1113.8
16.000                   2.2500                   2.0000                   10000                    4000.0                   40.000                   654.39                   767.12                   1121.0                   1129.4                   1130.2                   1128.6                   654.18                   768.97                   1124.2                   1132.3                   1133.0                   1131.4                   653.54                   764.53                   1118.6                   1127.3                   1128.2                   1126.7                   653.65                   767.09                   1122.4                   1130.8                   1131.5                   1129.9                   654.48                   768.48                   1123.2                   1131.4                   1132.1                   1130.5                   652.58                   761.99                   1116.9                   1125.9                   1126.9                   1125.4                   655.01                   768.89                   1123.1                   1131.4                   1132.1                   1130.5                   651.31                   758.67                   1114.5                   1124.0                   1125.1                   1123.6                   652.37                   769.12                   1125.6                   1133.5                   1134.1                   1132.5                   639.79                   748.98                   1136.6                   1145.7                   1146.4                   1144.7
16.000                   2.2500                   2.0000                   10000                    4000.0                   45.000                   694.80                   814.60                   1133.0                   1139.2                   1139.3                   1137.5                   694.52                   815.05                   1133.8                   1139.9                   1140.0                   1138.2                   694.12                   812.22                   1132.0                   1138.3                   1138.4                   1136.7                   694.16                   813.77                   1133.2                   1139.5                   1139.5                   1137.8                   694.91                   815.31                   1134.0                   1140.2                   1140.2                   1138.4                   693.32                   810.06                   1131.5                   1137.9                   1138.1                   1136.3                   695.39                   816.12                   1134.7                   1140.8                   1140.8                   1139.0                   692.34                   807.34                   1130.6                   1137.2                   1137.4                   1135.7                   693.36                   816.02                   1136.1                   1142.1                   1142.1                   1140.3                   683.77                   805.39                   1164.2                   1169.8                   1169.5                   1167.6
16.000                   2.2500                   2.0000                   10000                    4000.0                   50.000                   726.45                   861.75                   1144.9                   1149.6                   1149.2                   1147.3                   725.98                   861.49                   1145.1                   1149.7                   1149.3                   1147.4                   725.79                   859.95                   1144.4                   1149.2                   1148.7                   1146.9                   725.72                   860.72                   1144.9                   1149.7                   1149.2                   1147.3                   726.49                   862.21                   1145.7                   1150.3                   1149.9                   1148.0                   725.04                   858.28                   1144.3                   1149.2                   1148.7                   1146.9                   727.00                   863.17                   1146.5                   1151.1                   1150.7                   1148.8                   724.18                   856.18                   1143.9                   1148.8                   1148.4                   1146.5                   725.24                   862.77                   1147.4                   1152.0                   1151.5                   1149.6                   719.50                   865.54                   1186.7                   1190.7                   1189.8                   1187.6
16.000                   2.2500                   2.0000                   10000                    4000.0                   55.000                   755.08                   908.17                   1157.0                   1160.4                   1159.6                   1157.6                   754.33                   907.48                   1156.9                   1160.3                   1159.5                   1157.5                   754.35                   906.93                   1156.7                   1160.2                   1159.3                   1157.3                   754.13                   907.10                   1156.9                   1160.4                   1159.6                   1157.6                   755.02                   908.46                   1157.6                   1161.1                   1160.2                   1158.2                   753.53                   905.73                   1156.8                   1160.4                   1159.5                   1157.5                   755.63                   909.43                   1158.5                   1161.9                   1161.1                   1159.0                   752.65                   904.18                   1156.6                   1160.2                   1159.3                   1157.3                   753.88                   908.96                   1159.2                   1162.6                   1161.7                   1159.7                   752.11                   926.08                   1207.9                   1210.8                   1209.5                   1207.2
16.000                   2.2500                   2.0000                   10000                    4000.0                   60.000                   798.08                   951.97                   1170.6                   1173.1                   1171.9                   1169.8                   797.13                   951.08                   1170.3                   1172.9                   1171.7                   1169.5                   797.42                   951.14                   1170.5                   1173.0                   1171.8                   1169.7                   797.00                   950.96                   1170.5                   1173.1                   1171.9                   1169.8                   798.02                   952.16                   1171.2                   1173.7                   1172.5                   1170.4                   796.53                   950.27                   1170.7                   1173.3                   1172.1                   1170.0                   798.71                   953.08                   1172.1                   1174.6                   1173.4                   1171.3                   795.54                   949.08                   1170.6                   1173.2                   1172.0                   1169.9                   797.56                   953.21                   1173.1                   1175.6                   1174.4                   1172.3                   803.75                   982.28                   1230.7                   1232.7                   1231.0                   1228.6
16.000                   2.2500                   2.0000                   10000                    4000.0                   65.000                   849.75                   994.18                   1185.2                   1186.9                   1185.4                   1183.1                   848.67                   993.23                   1184.8                   1186.6                   1185.1                   1182.8                   849.27                   993.68                   1185.1                   1186.9                   1185.4                   1183.1                   848.61                   993.28                   1185.1                   1186.9                   1185.4                   1183.1                   849.77                   994.32                   1185.8                   1187.5                   1186.0                   1183.8                   848.31                   993.07                   1185.5                   1187.3                   1185.8                   1183.5                   850.54                   995.15                   1186.7                   1188.4                   1186.9                   1184.7                   847.14                   992.10                   1185.3                   1187.1                   1185.7                   1183.4                   850.33                   996.27                   1188.4                   1190.1                   1188.6                   1186.3                   866.90                   1035.9                   1254.4                   1255.6                   1253.7                   1251.1
16.000                   2.2500                   2.0000                   10000                    4000.0                   70.000                   903.02                   1033.2                   1201.8                   1202.9                   1201.1                   1198.8                   901.92                   1032.2                   1201.4                   1202.5                   1200.8                   1198.4                   902.71                   1032.9                   1201.8                   1202.9                   1201.2                   1198.8                   901.93                   1032.4                   1201.8                   1202.9                   1201.1                   1198.8                   903.07                   1033.3                   1202.4                   1203.5                   1201.7                   1199.4                   901.78                   1032.5                   1202.3                   1203.4                   1201.6                   1199.3                   903.81                   1034.1                   1203.3                   1204.4                   1202.7                   1200.3                   900.57                   1031.6                   1202.1                   1203.2                   1201.5                   1199.1                   905.25                   1036.6                   1206.1                   1207.2                   1205.4                   1203.1                   930.31                   1084.2                   1279.0                   1279.7                   1277.4                   1274.7
16.000                   2.2500                   2.0000                   10000                    4000.0                   75.000                   957.10                   1070.6                   1219.5                   1220.0                   1218.0                   1215.5                   956.03                   1069.7                   1219.1                   1219.6                   1217.6                   1215.1                   956.95                   1070.4                   1219.6                   1220.1                   1218.1                   1215.6                   956.11                   1069.9                   1219.4                   1220.0                   1218.0                   1215.5                   957.14                   1070.7                   1220.1                   1220.6                   1218.6                   1216.2                   956.12                   1070.1                   1220.0                   1220.6                   1218.6                   1216.1                   957.83                   1071.3                   1221.0                   1221.6                   1219.6                   1217.1                   954.92                   1069.3                   1219.8                   1220.4                   1218.4                   1216.0                   961.24                   1075.6                   1225.2                   1225.7                   1223.7                   1221.2                   993.86                   1129.9                   1304.2                   1304.3                   1301.8                   1298.9
