% Model:              batchmodel_COIL_N_16_COIL_kr_1.5_COIL_kh_2_FUNZ_freq_6000_FUNZ_I_eff_4000.mph
% Version:            COMSOL 6.0.0.318
% Date:               Feb 8 2022, 21:54
% Table:              Tabella 1 - GRIGLIA_T
% COIL_N                 COIL_kr                  COIL_kh                  FUNZ_freq                FUNZ_I_eff               Time (s)                 Temperatura (degC), Point: (0, 0)Temperatura (degC), Point: (15, 0)Temperatura (degC), Point: (27.483, 0)Temperatura (degC), Point: (28.742, 0)Temperatura (degC), Point: (29.497, 0)Temperatura (degC), Point: (29.99, 0)Temperatura (degC), Point: (0, 62.5)Temperatura (degC), Point: (15, 62.5)Temperatura (degC), Point: (27.483, 62.5)Temperatura (degC), Point: (28.742, 62.5)Temperatura (degC), Point: (29.497, 62.5)Temperatura (degC), Point: (29.99, 62.5)Temperatura (degC), Point: (0, 125)Temperatura (degC), Point: (15, 125)Temperatura (degC), Point: (27.483, 125)Temperatura (degC), Point: (28.742, 125)Temperatura (degC), Point: (29.497, 125)Temperatura (degC), Point: (29.99, 125)Temperatura (degC), Point: (0, 187.5)Temperatura (degC), Point: (15, 187.5)Temperatura (degC), Point: (27.483, 187.5)Temperatura (degC), Point: (28.742, 187.5)Temperatura (degC), Point: (29.497, 187.5)Temperatura (degC), Point: (29.99, 187.5)Temperatura (degC), Point: (0, 250)Temperatura (degC), Point: (15, 250)Temperatura (degC), Point: (27.483, 250)Temperatura (degC), Point: (28.742, 250)Temperatura (degC), Point: (29.497, 250)Temperatura (degC), Point: (29.99, 250)Temperatura (degC), Point: (0, 312.5)Temperatura (degC), Point: (15, 312.5)Temperatura (degC), Point: (27.483, 312.5)Temperatura (degC), Point: (28.742, 312.5)Temperatura (degC), Point: (29.497, 312.5)Temperatura (degC), Point: (29.99, 312.5)Temperatura (degC), Point: (0, 375)Temperatura (degC), Point: (15, 375)Temperatura (degC), Point: (27.483, 375)Temperatura (degC), Point: (28.742, 375)Temperatura (degC), Point: (29.497, 375)Temperatura (degC), Point: (29.99, 375)Temperatura (degC), Point: (0, 437.5)Temperatura (degC), Point: (15, 437.5)Temperatura (degC), Point: (27.483, 437.5)Temperatura (degC), Point: (28.742, 437.5)Temperatura (degC), Point: (29.497, 437.5)Temperatura (degC), Point: (29.99, 437.5)Temperatura (degC), Point: (0, 468.75)Temperatura (degC), Point: (15, 468.75)Temperatura (degC), Point: (27.483, 468.75)Temperatura (degC), Point: (28.742, 468.75)Temperatura (degC), Point: (29.497, 468.75)Temperatura (degC), Point: (29.99, 468.75)Temperatura (degC), Point: (0, 492.19)Temperatura (degC), Point: (15, 492.19)Temperatura (degC), Point: (27.483, 492.19)Temperatura (degC), Point: (28.742, 492.19)Temperatura (degC), Point: (29.497, 492.19)Temperatura (degC), Point: (29.99, 492.19)
16.000                   1.5000                   2.0000                   6000.0                   4000.0                   0.0000                   20.000                   20.000                   20.000                   20.000                   20.110                   20.454                   20.000                   20.000                   20.000                   20.000                   20.110                   20.455                   20.000                   20.000                   20.000                   20.000                   20.112                   20.458                   20.000                   20.000                   20.000                   20.000                   20.114                   20.462                   20.000                   20.000                   20.000                   20.000                   20.116                   20.468                   20.000                   20.000                   20.000                   20.000                   20.119                   20.476                   20.000                   20.000                   20.000                   20.000                   20.123                   20.484                   20.000                   20.000                   20.000                   20.000                   20.127                   20.493                   20.000                   20.000                   20.000                   20.000                   20.153                   20.551                   20.000                   20.000                   20.000                   20.000                   20.140                   20.522
16.000                   1.5000                   2.0000                   6000.0                   4000.0                   5.0000                   30.501                   71.691                   305.72                   356.12                   386.53                   395.78                   30.482                   71.676                   304.98                   355.21                   385.57                   394.75                   30.472                   71.602                   305.48                   356.31                   386.99                   396.20                   30.519                   71.891                   307.58                   358.55                   389.45                   398.84                   30.572                   72.169                   309.01                   360.48                   391.60                   400.99                   30.727                   73.009                   314.07                   366.20                   397.75                   407.19                   30.759                   73.244                   315.89                   368.86                   400.60                   410.11                   30.762                   73.262                   316.59                   369.63                   401.69                   411.34                   31.510                   77.471                   345.78                   405.83                   441.05                   451.32                   32.479                   79.102                   321.75                   372.71                   403.18                   412.35
16.000                   1.5000                   2.0000                   6000.0                   4000.0                   10.000                   102.30                   198.45                   570.48                   647.65                   689.62                   700.92                   102.09                   197.69                   568.55                   645.91                   687.93                   699.35                   102.13                   198.12                   571.29                   649.34                   691.67                   703.02                   102.23                   198.31                   571.51                   649.45                   691.87                   703.22                   102.53                   199.11                   575.65                   654.54                   697.24                   708.67                   103.05                   199.96                   576.44                   655.38                   698.09                   709.58                   103.31                   200.75                   580.66                   660.81                   704.16                   715.71                   103.13                   200.55                   580.97                   660.89                   704.39                   716.10                   106.12                   208.24                   613.77                   699.10                   745.03                   757.44                   110.19                   209.74                   571.22                   644.40                   684.25                   694.88
16.000                   1.5000                   2.0000                   6000.0                   4000.0                   15.000                   210.67                   333.59                   757.09                   848.97                   894.83                   905.55                   210.28                   332.92                   756.33                   848.00                   893.84                   904.57                   210.50                   333.62                   759.86                   852.50                   898.47                   909.17                   210.43                   333.53                   760.62                   853.95                   900.27                   911.03                   211.02                   334.59                   765.30                   859.90                   906.42                   917.16                   211.54                   335.34                   768.44                   863.89                   910.58                   921.32                   212.01                   336.33                   773.71                   870.84                   917.91                   928.64                   211.74                   336.20                   774.78                   872.57                   919.93                   930.71                   215.55                   344.19                   839.02                   955.64                   1006.3                   1016.9                   223.01                   346.08                   739.25                   818.76                   860.20                   870.13
16.000                   1.5000                   2.0000                   6000.0                   4000.0                   20.000                   320.56                   448.48                   849.16                   922.38                   956.38                   963.77                   320.21                   448.02                   846.73                   919.34                   953.17                   960.54                   320.58                   448.73                   847.86                   920.06                   953.68                   961.00                   320.36                   448.70                   851.81                   925.14                   959.10                   966.46                   321.14                   449.84                   852.59                   925.19                   958.82                   966.11                   321.72                   450.78                   852.94                   924.59                   957.81                   965.00                   322.34                   451.99                   857.27                   929.09                   962.23                   969.37                   322.23                   452.33                   854.87                   924.93                   957.37                   964.38                   326.67                   468.30                   1106.4                   1165.1                   1178.4                   1178.3                   330.10                   456.08                   800.96                   857.01                   884.70                   891.09
16.000                   1.5000                   2.0000                   6000.0                   4000.0                   25.000                   414.88                   535.62                   904.00                   963.12                   990.44                   996.08                   414.66                   535.24                   900.52                   959.16                   986.36                   992.00                   415.14                   535.90                   899.47                   957.45                   984.39                   989.98                   414.94                   536.21                   904.48                   963.01                   990.06                   995.64                   415.96                   537.65                   903.49                   960.86                   987.43                   992.91                   416.79                   538.99                   902.11                   958.06                   984.03                   989.39                   417.65                   540.71                   906.90                   962.27                   987.80                   993.03                   417.95                   541.70                   903.96                   957.34                   982.05                   987.14                   425.59                   573.09                   1160.5                   1189.3                   1194.5                   1192.9                   421.95                   540.42                   844.63                   889.37                   911.61                   916.56
16.000                   1.5000                   2.0000                   6000.0                   4000.0                   30.000                   494.02                   604.90                   930.26                   974.62                   995.36                   999.47                   493.93                   604.62                   927.93                   972.09                   992.81                   996.93                   494.53                   605.39                   927.38                   970.97                   991.43                   995.50                   494.42                   606.09                   932.44                   975.78                   995.95                   999.92                   495.75                   608.08                   934.94                   977.23                   996.75                   1000.6                   496.90                   610.05                   938.78                   979.96                   998.79                   1002.4                   498.08                   612.53                   950.46                   991.15                   1009.1                   1012.4                   498.81                   614.07                   953.68                   994.07                   1011.4                   1014.5                   510.59                   656.29                   1167.3                   1185.2                   1187.5                   1185.4                   499.62                   608.80                   889.69                   925.92                   943.69                   947.45
16.000                   1.5000                   2.0000                   6000.0                   4000.0                   35.000                   558.91                   659.01                   945.01                   977.50                   992.71                   995.56                   558.91                   658.97                   944.81                   977.28                   992.48                   995.33                   559.63                   659.96                   947.51                   979.65                   994.55                   997.30                   559.68                   661.20                   956.28                   988.21                   1002.6                   1005.2                   561.24                   663.84                   967.40                   999.25                   1013.0                   1015.2                   562.67                   666.55                   981.58                   1014.3                   1027.2                   1028.9                   564.14                   669.90                   1004.7                   1038.4                   1049.7                   1050.7                   565.16                   671.88                   1012.9                   1046.1                   1056.8                   1057.5                   579.75                   718.25                   1164.0                   1176.8                   1177.8                   1175.5                   563.46                   663.05                   935.25                   964.72                   978.39                   980.97
16.000                   1.5000                   2.0000                   6000.0                   4000.0                   40.000                   613.39                   704.02                   967.02                   991.07                   1001.8                   1003.4                   613.45                   704.07                   968.51                   992.70                   1003.4                   1005.1                   614.22                   705.31                   974.84                   999.17                   1009.7                   1011.2                   614.42                   707.01                   988.54                   1013.8                   1023.7                   1024.9                   616.10                   710.14                   1006.5                   1032.6                   1041.7                   1042.3                   617.68                   713.47                   1026.2                   1052.4                   1060.4                   1060.4                   619.35                   717.54                   1050.2                   1075.1                   1081.7                   1081.1                   620.51                   719.87                   1059.4                   1083.4                   1089.4                   1088.7                   636.28                   770.86                   1160.8                   1170.5                   1170.7                   1168.2                   616.91                   708.35                   983.09                   1008.4                   1018.2                   1019.3
16.000                   1.5000                   2.0000                   6000.0                   4000.0                   45.000                   658.61                   743.08                   1001.3                   1020.3                   1027.2                   1027.6                   658.68                   743.05                   1003.5                   1022.7                   1029.7                   1030.0                   659.45                   744.53                   1011.6                   1031.5                   1038.2                   1038.4                   659.78                   746.86                   1026.2                   1046.6                   1052.8                   1052.6                   661.45                   750.72                   1043.7                   1063.9                   1069.3                   1068.6                   663.06                   754.98                   1060.7                   1079.9                   1084.4                   1083.4                   664.81                   760.21                   1078.8                   1096.2                   1099.7                   1098.4                   666.00                   763.23                   1086.7                   1103.4                   1106.6                   1105.1                   681.54                   821.14                   1158.3                   1165.7                   1165.4                   1162.9                   661.21                   748.27                   1034.2                   1055.3                   1061.4                   1061.0
16.000                   1.5000                   2.0000                   6000.0                   4000.0                   50.000                   694.96                   783.64                   1046.3                   1061.9                   1065.7                   1064.7                   695.03                   783.98                   1047.5                   1063.0                   1066.7                   1065.7                   695.73                   785.86                   1052.9                   1068.2                   1071.8                   1070.6                   696.13                   788.77                   1062.0                   1076.8                   1079.9                   1078.6                   697.65                   793.59                   1072.9                   1086.8                   1089.4                   1087.9                   699.13                   798.87                   1083.5                   1096.5                   1098.6                   1097.0                   700.74                   805.24                   1095.0                   1106.9                   1108.5                   1106.6                   701.84                   808.95                   1101.3                   1112.7                   1114.0                   1112.1                   715.55                   866.65                   1155.6                   1161.4                   1160.6                   1158.1                   696.91                   792.37                   1088.0                   1102.4                   1104.9                   1103.2
16.000                   1.5000                   2.0000                   6000.0                   4000.0                   55.000                   723.81                   829.57                   1078.2                   1088.9                   1090.4                   1088.6                   723.79                   830.08                   1078.7                   1089.5                   1090.9                   1089.2                   724.44                   832.18                   1081.9                   1092.4                   1093.7                   1091.9                   724.90                   835.06                   1087.0                   1097.0                   1098.1                   1096.3                   726.32                   840.10                   1093.6                   1103.0                   1103.8                   1101.8                   727.74                   845.36                   1100.3                   1109.1                   1109.7                   1107.7                   729.37                   851.74                   1107.9                   1116.1                   1116.4                   1114.3                   730.48                   855.61                   1113.0                   1120.8                   1121.0                   1118.8                   744.24                   907.01                   1156.1                   1160.6                   1159.5                   1156.9                   726.48                   845.38                   1126.4                   1135.1                   1135.3                   1133.1
16.000                   1.5000                   2.0000                   6000.0                   4000.0                   60.000                   752.12                   877.35                   1097.0                   1104.4                   1104.6                   1102.5                   752.11                   877.77                   1097.4                   1104.8                   1105.0                   1102.9                   753.11                   879.73                   1099.7                   1106.9                   1107.0                   1104.9                   753.84                   882.17                   1103.4                   1110.3                   1110.3                   1108.2                   756.00                   886.67                   1108.3                   1114.9                   1114.7                   1112.5                   758.22                   891.35                   1113.5                   1119.7                   1119.4                   1117.2                   760.86                   897.01                   1119.5                   1125.3                   1124.8                   1122.5                   762.64                   900.64                   1123.9                   1129.5                   1128.9                   1126.6                   782.26                   944.03                   1160.8                   1164.3                   1162.8                   1160.1                   759.82                   903.23                   1151.4                   1157.2                   1156.4                   1153.9
16.000                   1.5000                   2.0000                   6000.0                   4000.0                   65.000                   787.69                   923.47                   1114.2                   1118.7                   1117.9                   1115.5                   787.72                   923.82                   1114.6                   1119.1                   1118.2                   1115.8                   788.99                   925.60                   1116.2                   1120.6                   1119.7                   1117.4                   789.92                   927.62                   1118.7                   1123.0                   1122.1                   1119.7                   792.65                   931.59                   1122.4                   1126.5                   1125.5                   1123.0                   795.47                   935.69                   1126.4                   1130.3                   1129.2                   1126.7                   798.86                   940.63                   1131.1                   1134.8                   1133.6                   1131.1                   801.11                   943.98                   1134.9                   1138.5                   1137.3                   1134.7                   824.64                   980.18                   1166.8                   1169.3                   1167.6                   1164.8                   801.62                   959.05                   1175.2                   1178.6                   1177.0                   1174.1
16.000                   1.5000                   2.0000                   6000.0                   4000.0                   70.000                   839.62                   965.89                   1128.1                   1130.7                   1129.2                   1126.6                   839.73                   966.17                   1128.4                   1131.0                   1129.5                   1127.0                   841.12                   967.71                   1129.8                   1132.4                   1130.9                   1128.3                   842.08                   969.37                   1131.9                   1134.4                   1132.9                   1130.3                   844.99                   972.76                   1135.0                   1137.4                   1135.8                   1133.2                   847.98                   976.31                   1138.5                   1140.9                   1139.2                   1136.6                   851.49                   980.54                   1142.6                   1144.9                   1143.2                   1140.5                   853.76                   983.50                   1146.1                   1148.4                   1146.6                   1144.0                   876.87                   1014.3                   1175.7                   1177.4                   1175.4                   1172.5                   862.48                   1010.3                   1196.3                   1198.4                   1196.3                   1193.3
16.000                   1.5000                   2.0000                   6000.0                   4000.0                   75.000                   891.36                   1005.5                   1141.7                   1142.9                   1140.8                   1138.1                   891.51                   1005.7                   1142.0                   1143.2                   1141.1                   1138.4                   892.90                   1007.0                   1143.3                   1144.4                   1142.3                   1139.6                   893.83                   1008.4                   1145.0                   1146.1                   1144.1                   1141.3                   896.70                   1011.3                   1147.8                   1148.9                   1146.8                   1144.0                   899.63                   1014.3                   1150.9                   1152.0                   1149.9                   1147.1                   903.03                   1017.9                   1154.6                   1155.6                   1153.5                   1150.7                   905.16                   1020.5                   1157.9                   1159.0                   1156.8                   1154.0                   927.21                   1047.1                   1186.2                   1187.1                   1184.8                   1181.8                   922.18                   1057.7                   1217.5                   1218.5                   1216.0                   1212.8