% Model:              batchmodel_COIL_N_16_COIL_kr_1.5_COIL_kh_2_FUNZ_freq_6000_FUNZ_I_eff_2500.mph
% Version:            COMSOL 6.0.0.318
% Date:               Feb 8 2022, 21:53
% Table:              Tabella 1 - GRIGLIA_T
% COIL_N                 COIL_kr                  COIL_kh                  FUNZ_freq                FUNZ_I_eff               Time (s)                 Temperatura (degC), Point: (0, 0)Temperatura (degC), Point: (15, 0)Temperatura (degC), Point: (27.483, 0)Temperatura (degC), Point: (28.742, 0)Temperatura (degC), Point: (29.497, 0)Temperatura (degC), Point: (29.99, 0)Temperatura (degC), Point: (0, 62.5)Temperatura (degC), Point: (15, 62.5)Temperatura (degC), Point: (27.483, 62.5)Temperatura (degC), Point: (28.742, 62.5)Temperatura (degC), Point: (29.497, 62.5)Temperatura (degC), Point: (29.99, 62.5)Temperatura (degC), Point: (0, 125)Temperatura (degC), Point: (15, 125)Temperatura (degC), Point: (27.483, 125)Temperatura (degC), Point: (28.742, 125)Temperatura (degC), Point: (29.497, 125)Temperatura (degC), Point: (29.99, 125)Temperatura (degC), Point: (0, 187.5)Temperatura (degC), Point: (15, 187.5)Temperatura (degC), Point: (27.483, 187.5)Temperatura (degC), Point: (28.742, 187.5)Temperatura (degC), Point: (29.497, 187.5)Temperatura (degC), Point: (29.99, 187.5)Temperatura (degC), Point: (0, 250)Temperatura (degC), Point: (15, 250)Temperatura (degC), Point: (27.483, 250)Temperatura (degC), Point: (28.742, 250)Temperatura (degC), Point: (29.497, 250)Temperatura (degC), Point: (29.99, 250)Temperatura (degC), Point: (0, 312.5)Temperatura (degC), Point: (15, 312.5)Temperatura (degC), Point: (27.483, 312.5)Temperatura (degC), Point: (28.742, 312.5)Temperatura (degC), Point: (29.497, 312.5)Temperatura (degC), Point: (29.99, 312.5)Temperatura (degC), Point: (0, 375)Temperatura (degC), Point: (15, 375)Temperatura (degC), Point: (27.483, 375)Temperatura (degC), Point: (28.742, 375)Temperatura (degC), Point: (29.497, 375)Temperatura (degC), Point: (29.99, 375)Temperatura (degC), Point: (0, 437.5)Temperatura (degC), Point: (15, 437.5)Temperatura (degC), Point: (27.483, 437.5)Temperatura (degC), Point: (28.742, 437.5)Temperatura (degC), Point: (29.497, 437.5)Temperatura (degC), Point: (29.99, 437.5)Temperatura (degC), Point: (0, 468.75)Temperatura (degC), Point: (15, 468.75)Temperatura (degC), Point: (27.483, 468.75)Temperatura (degC), Point: (28.742, 468.75)Temperatura (degC), Point: (29.497, 468.75)Temperatura (degC), Point: (29.99, 468.75)Temperatura (degC), Point: (0, 492.19)Temperatura (degC), Point: (15, 492.19)Temperatura (degC), Point: (27.483, 492.19)Temperatura (degC), Point: (28.742, 492.19)Temperatura (degC), Point: (29.497, 492.19)Temperatura (degC), Point: (29.99, 492.19)
16.000                   1.5000                   2.0000                   6000.0                   2500.0                   0.0000                   20.000                   20.000                   20.000                   20.000                   20.038                   20.264                   20.000                   20.000                   20.000                   20.000                   20.038                   20.264                   20.000                   20.000                   20.000                   20.000                   20.039                   20.266                   20.000                   20.000                   20.000                   20.000                   20.040                   20.268                   20.000                   20.000                   20.000                   20.000                   20.041                   20.271                   20.000                   20.000                   20.000                   20.000                   20.042                   20.275                   20.000                   20.000                   20.000                   20.000                   20.044                   20.279                   20.000                   20.000                   20.000                   20.000                   20.046                   20.283                   20.000                   20.000                   20.000                   20.000                   20.057                   20.313                   20.000                   20.000                   20.000                   20.000                   20.047                   20.288
16.000                   1.5000                   2.0000                   6000.0                   2500.0                   5.0000                   25.752                   44.039                   139.61                   157.24                   168.45                   172.77                   25.780                   44.194                   140.53                   158.23                   169.45                   173.77                   25.732                   44.010                   139.99                   157.72                   168.94                   173.28                   25.794                   44.290                   141.29                   159.22                   170.66                   174.99                   25.855                   44.596                   143.07                   161.28                   172.93                   177.24                   25.872                   44.713                   144.22                   162.66                   174.40                   178.85                   25.976                   45.228                   147.06                   165.95                   178.00                   182.43                   25.899                   44.891                   145.80                   164.74                   176.79                   181.37                   26.196                   46.457                   156.02                   176.98                   190.36                   195.34                   26.994                   47.102                   145.11                   163.19                   174.86                   179.25
16.000                   1.5000                   2.0000                   6000.0                   2500.0                   10.000                   60.622                   102.62                   236.63                   258.38                   271.96                   276.79                   60.825                   103.04                   237.80                   259.64                   273.25                   278.11                   60.576                   102.62                   237.05                   258.79                   272.34                   277.18                   60.833                   103.15                   238.60                   260.56                   274.25                   279.17                   61.098                   103.74                   240.46                   262.73                   276.61                   281.61                   61.164                   103.99                   241.66                   264.14                   278.14                   283.13                   61.583                   104.92                   244.38                   267.18                   281.44                   286.52                   61.294                   104.53                   244.90                   268.01                   282.39                   287.48                   62.377                   107.57                   258.02                   283.33                   299.02                   304.45                   63.325                   106.69                   239.42                   260.55                   273.73                   278.51
16.000                   1.5000                   2.0000                   6000.0                   2500.0                   15.000                   112.96                   170.35                   336.09                   362.61                   378.75                   384.01                   113.35                   171.01                   337.66                   364.22                   380.42                   385.80                   112.89                   170.28                   335.40                   361.65                   377.59                   382.93                   113.36                   171.19                   338.45                   365.20                   381.52                   387.01                   113.76                   171.84                   340.26                   367.27                   383.87                   389.48                   113.85                   172.10                   341.11                   368.24                   384.82                   390.32                   114.52                   173.31                   344.97                   372.55                   389.59                   395.29                   114.09                   172.94                   345.62                   373.56                   390.51                   396.10                   115.56                   176.44                   359.08                   389.16                   407.34                   413.25                   115.86                   173.53                   331.95                   356.49                   371.60                   376.78
16.000                   1.5000                   2.0000                   6000.0                   2500.0                   20.000                   177.47                   244.21                   438.78                   470.24                   488.63                   494.23                   177.98                   244.94                   439.17                   470.19                   488.81                   494.69                   177.30                   243.86                   436.96                   468.33                   486.61                   492.31                   177.96                   244.99                   438.82                   469.99                   488.68                   494.43                   178.38                   245.58                   440.68                   472.18                   491.50                   497.28                   178.45                   245.75                   441.30                   472.94                   491.91                   497.74                   179.33                   247.32                   447.19                   479.67                   499.57                   505.44                   178.79                   246.85                   447.36                   479.93                   499.03                   504.95                   180.07                   249.94                   460.52                   495.72                   516.29                   522.54                   179.46                   244.92                   424.00                   452.09                   469.29                   474.57
16.000                   1.5000                   2.0000                   6000.0                   2500.0                   25.000                   246.79                   319.92                   534.90                   570.19                   591.04                   597.19                   247.47                   321.10                   539.26                   574.45                   595.11                   601.45                   246.64                   319.93                   539.52                   576.02                   597.08                   603.30                   247.34                   320.80                   541.12                   578.74                   600.79                   606.74                   247.46                   320.26                   528.37                   559.42                   577.29                   582.53                   247.63                   320.92                   537.46                   573.74                   594.77                   600.73                   248.69                   322.71                   540.69                   575.92                   596.13                   601.65                   248.16                   322.72                   548.97                   587.17                   609.00                   615.23                   248.76                   324.99                   562.59                   603.85                   627.37                   633.99                   246.37                   316.93                   515.31                   547.33                   566.60                   571.83
16.000                   1.5000                   2.0000                   6000.0                   2500.0                   30.000                   314.59                   394.66                   638.65                   681.68                   706.01                   712.67                   315.48                   396.19                   642.44                   685.85                   710.32                   716.96                   314.64                   395.24                   642.49                   686.17                   710.79                   717.48                   315.09                   395.46                   642.42                   686.31                   711.03                   717.73                   314.69                   393.82                   633.70                   676.60                   701.17                   707.88                   315.10                   395.11                   640.29                   684.16                   708.88                   715.63                   316.31                   396.96                   643.74                   688.06                   713.17                   720.00                   315.91                   397.47                   649.97                   695.28                   720.81                   727.71                   315.61                   398.74                   660.89                   708.57                   735.17                   742.29                   311.61                   388.04                   606.89                   643.19                   664.05                   669.90
16.000                   1.5000                   2.0000                   6000.0                   2500.0                   35.000                   380.73                   465.75                   717.38                   759.02                   784.93                   792.52                   381.83                   467.64                   728.72                   778.86                   807.64                   814.55                   381.11                   467.04                   726.38                   774.27                   803.26                   810.84                   381.09                   466.36                   721.10                   763.29                   787.92                   795.12                   380.10                   463.98                   711.85                   757.38                   786.26                   794.40                   380.85                   465.70                   716.52                   755.65                   778.56                   785.41                   382.14                   467.45                   720.02                   765.46                   793.16                   801.21                   382.06                   468.97                   736.99                   788.56                   818.90                   826.70                   380.83                   469.32                   752.12                   811.03                   843.17                   851.02                   375.63                   456.44                   683.61                   719.56                   738.99                   745.03
16.000                   1.5000                   2.0000                   6000.0                   2500.0                   40.000                   443.32                   530.93                   795.90                   848.70                   876.93                   883.82                   444.57                   533.03                   808.43                   864.43                   893.56                   900.30                   444.09                   532.78                   806.57                   861.90                   891.05                   897.93                   443.50                   531.32                   799.84                   853.37                   881.51                   888.35                   442.09                   528.78                   793.30                   847.76                   876.97                   884.07                   443.12                   530.61                   795.88                   848.76                   876.75                   883.58                   444.43                   532.25                   800.73                   855.93                   885.19                   892.29                   444.85                   534.93                   823.33                   882.40                   912.74                   919.71                   442.82                   534.54                   842.65                   907.20                   939.03                   946.14                   436.46                   519.48                   747.54                   788.03                   810.76                   816.63
16.000                   1.5000                   2.0000                   6000.0                   2500.0                   45.000                   501.50                   588.81                   858.53                   908.12                   932.63                   937.98                   502.82                   590.94                   868.43                   918.40                   942.87                   948.22                   502.60                   590.98                   868.23                   918.31                   942.78                   948.10                   501.47                   589.04                   863.33                   913.93                   938.87                   944.30                   499.83                   586.66                   858.38                   908.89                   933.75                   939.19                   501.08                   588.44                   860.65                   911.30                   936.39                   941.87                   502.39                   590.03                   864.92                   915.67                   940.57                   945.97                   503.41                   593.61                   885.93                   937.91                   962.86                   968.16                   500.67                   592.85                   912.11                   969.66                   996.57                   1002.1                   492.91                   575.34                   797.97                   837.23                   858.32                   863.29
16.000                   1.5000                   2.0000                   6000.0                   2500.0                   50.000                   554.72                   638.64                   899.17                   939.17                   958.62                   962.67                   556.04                   640.69                   907.06                   947.34                   966.84                   970.86                   556.05                   640.94                   907.60                   947.85                   967.31                   971.31                   554.51                   638.82                   904.86                   945.86                   965.72                   969.82                   552.83                   636.70                   900.59                   941.64                   961.57                   965.71                   554.20                   638.42                   901.76                   942.22                   961.84                   965.90                   555.53                   640.00                   905.13                   945.46                   964.97                   968.99                   557.14                   644.15                   921.25                   961.44                   980.63                   984.49                   553.88                   644.28                   998.83                   1049.6                   1066.8                   1068.8                   544.46                   623.09                   833.80                   867.26                   884.58                   888.51
16.000                   1.5000                   2.0000                   6000.0                   2500.0                   55.000                   602.15                   680.37                   924.99                   957.83                   973.95                   977.15                   603.40                   682.31                   932.12                   965.33                   981.54                   984.73                   603.59                   682.69                   932.43                   965.44                   981.55                   984.71                   601.83                   680.64                   931.21                   964.89                   981.33                   984.57                   600.24                   678.81                   927.61                   961.37                   977.88                   981.16                   601.69                   680.48                   927.07                   959.82                   975.85                   979.02                   603.03                   682.08                   930.05                   962.62                   978.54                   981.67                   605.11                   686.44                   940.97                   972.57                   987.86                   990.78                   601.72                   689.55                   1072.8                   1109.2                   1117.4                   1116.7                   590.45                   663.07                   858.31                   886.10                   900.53                   903.67
16.000                   1.5000                   2.0000                   6000.0                   2500.0                   60.000                   643.14                   714.39                   943.20                   970.99                   984.69                   987.27                   644.27                   716.15                   949.74                   977.85                   991.60                   994.15                   644.57                   716.59                   949.62                   977.48                   991.11                   993.64                   642.77                   714.78                   949.55                   978.01                   991.93                   994.52                   641.39                   713.30                   946.86                   975.35                   989.32                   991.94                   642.88                   714.93                   945.58                   972.99                   986.45                   988.96                   644.21                   716.58                   948.49                   975.62                   988.90                   991.35                   646.60                   720.93                   955.33                   981.04                   993.48                   995.69                   643.65                   729.25                   1106.1                   1127.2                   1130.9                   1129.3                   630.34                   695.97                   876.73                   900.46                   912.81                   915.39
16.000                   1.5000                   2.0000                   6000.0                   2500.0                   65.000                   677.55                   742.25                   956.27                   979.66                   991.14                   993.15                   678.54                   743.93                   961.95                   985.53                   996.99                   998.96                   678.90                   744.42                   961.68                   985.00                   996.34                   998.28                   677.21                   742.83                   962.46                   986.32                   997.90                   999.89                   676.07                   741.67                   961.03                   984.89                   996.49                   998.50                   677.58                   743.50                   960.48                   983.29                   994.37                   996.25                   678.89                   745.34                   963.78                   986.23                   997.04                   998.84                   681.39                   749.93                   968.55                   989.55                   999.51                   1001.1                   679.45                   765.83                   1112.6                   1127.8                   1130.0                   1128.2                   664.10                   722.60                   892.68                   913.29                   923.99                   926.13
16.000                   1.5000                   2.0000                   6000.0                   2500.0                   70.000                   705.21                   767.08                   965.81                   985.14                   994.53                   996.00                   706.03                   768.96                   970.36                   989.76                   999.09                   1000.5                   706.41                   769.53                   970.33                   989.49                   998.70                   1000.1                   704.96                   768.09                   971.70                   991.32                   1000.7                   1002.1                   704.10                   767.21                   971.91                   991.52                   1000.9                   1002.3                   705.55                   769.70                   973.41                   992.11                   1000.9                   1002.2                   706.77                   772.02                   977.77                   996.14                   1004.6                   1005.8                   709.13                   777.33                   982.55                   999.82                   1007.6                   1008.5                   708.58                   802.13                   1109.6                   1122.1                   1123.6                   1121.7                   691.96                   744.71                   907.65                   925.58                   934.88                   936.62
16.000                   1.5000                   2.0000                   6000.0                   2500.0                   75.000                   727.19                   792.21                   974.19                   989.91                   997.40                   998.36                   727.85                   794.34                   977.64                   993.35                   1000.8                   1001.7                   728.22                   795.09                   978.19                   993.70                   1001.0                   1001.9                   727.05                   793.75                   979.98                   995.89                   1003.3                   1004.2                   726.45                   793.28                   982.02                   997.97                   1005.3                   1006.2                   727.87                   796.73                   986.28                   1001.6                   1008.4                   1009.1                   728.99                   799.74                   992.21                   1007.3                   1013.8                   1014.4                   731.20                   805.83                   998.02                   1012.5                   1018.4                   1018.7                   732.10                   837.24                   1107.9                   1118.1                   1119.0                   1117.0                   714.46                   765.55                   922.01                   937.55                   945.57                   946.95