% Model:              batchmodel_COIL_N_16_COIL_kr_2.25_COIL_kh_1.5_FUNZ_freq_2000_FUNZ_I_eff_2500.mph
% Version:            COMSOL 6.0.0.318
% Date:               Feb 8 2022, 22:16
% Table:              Tabella 1 - GRIGLIA_T
% COIL_N                 COIL_kr                  COIL_kh                  FUNZ_freq                FUNZ_I_eff               Time (s)                 Temperatura (degC), Point: (0, 0)Temperatura (degC), Point: (15, 0)Temperatura (degC), Point: (25.641, 0)Temperatura (degC), Point: (27.821, 0)Temperatura (degC), Point: (29.128, 0)Temperatura (degC), Point: (29.99, 0)Temperatura (degC), Point: (0, 62.5)Temperatura (degC), Point: (15, 62.5)Temperatura (degC), Point: (25.641, 62.5)Temperatura (degC), Point: (27.821, 62.5)Temperatura (degC), Point: (29.128, 62.5)Temperatura (degC), Point: (29.99, 62.5)Temperatura (degC), Point: (0, 125)Temperatura (degC), Point: (15, 125)Temperatura (degC), Point: (25.641, 125)Temperatura (degC), Point: (27.821, 125)Temperatura (degC), Point: (29.128, 125)Temperatura (degC), Point: (29.99, 125)Temperatura (degC), Point: (0, 187.5)Temperatura (degC), Point: (15, 187.5)Temperatura (degC), Point: (25.641, 187.5)Temperatura (degC), Point: (27.821, 187.5)Temperatura (degC), Point: (29.128, 187.5)Temperatura (degC), Point: (29.99, 187.5)Temperatura (degC), Point: (0, 250)Temperatura (degC), Point: (15, 250)Temperatura (degC), Point: (25.641, 250)Temperatura (degC), Point: (27.821, 250)Temperatura (degC), Point: (29.128, 250)Temperatura (degC), Point: (29.99, 250)Temperatura (degC), Point: (0, 312.5)Temperatura (degC), Point: (15, 312.5)Temperatura (degC), Point: (25.641, 312.5)Temperatura (degC), Point: (27.821, 312.5)Temperatura (degC), Point: (29.128, 312.5)Temperatura (degC), Point: (29.99, 312.5)Temperatura (degC), Point: (0, 375)Temperatura (degC), Point: (15, 375)Temperatura (degC), Point: (25.641, 375)Temperatura (degC), Point: (27.821, 375)Temperatura (degC), Point: (29.128, 375)Temperatura (degC), Point: (29.99, 375)Temperatura (degC), Point: (0, 437.5)Temperatura (degC), Point: (15, 437.5)Temperatura (degC), Point: (25.641, 437.5)Temperatura (degC), Point: (27.821, 437.5)Temperatura (degC), Point: (29.128, 437.5)Temperatura (degC), Point: (29.99, 437.5)Temperatura (degC), Point: (0, 468.75)Temperatura (degC), Point: (15, 468.75)Temperatura (degC), Point: (25.641, 468.75)Temperatura (degC), Point: (27.821, 468.75)Temperatura (degC), Point: (29.128, 468.75)Temperatura (degC), Point: (29.99, 468.75)Temperatura (degC), Point: (0, 492.19)Temperatura (degC), Point: (15, 492.19)Temperatura (degC), Point: (25.641, 492.19)Temperatura (degC), Point: (27.821, 492.19)Temperatura (degC), Point: (29.128, 492.19)Temperatura (degC), Point: (29.99, 492.19)
16.000                   2.2500                   1.5000                   2000.0                   2500.0                   0.0000                   20.000                   20.000                   20.000                   20.000                   20.014                   20.101                   20.000                   20.000                   20.000                   20.000                   20.014                   20.101                   20.000                   20.000                   20.000                   20.000                   20.014                   20.102                   20.000                   20.000                   20.000                   20.000                   20.014                   20.102                   20.000                   20.000                   20.000                   20.000                   20.014                   20.102                   20.000                   20.000                   20.000                   20.000                   20.014                   20.102                   20.000                   20.000                   20.000                   20.000                   20.014                   20.103                   20.000                   20.000                   20.000                   20.000                   20.014                   20.103                   20.000                   20.000                   20.000                   20.000                   20.013                   20.099                   20.000                   20.000                   20.000                   20.000                   20.006                   20.076
16.000                   2.2500                   1.5000                   2000.0                   2500.0                   5.0000                   23.420                   33.410                   72.326                   86.787                   96.590                   100.65                   23.438                   33.474                   72.487                   86.974                   96.798                   100.86                   23.457                   33.581                   72.887                   87.431                   97.286                   101.35                   23.447                   33.537                   72.797                   87.361                   97.223                   101.30                   23.470                   33.589                   72.896                   87.524                   97.419                   101.51                   23.407                   33.320                   72.074                   86.631                   96.543                   100.64                   23.472                   33.572                   72.863                   87.495                   97.451                   101.56                   23.368                   33.159                   71.480                   85.953                   95.847                   99.937                   23.136                   32.332                   68.373                   81.889                   91.096                   94.960                   22.902                   30.325                   56.983                   66.465                   72.848                   75.659
16.000                   2.2500                   1.5000                   2000.0                   2500.0                   10.000                   40.117                   62.581                   117.77                   134.44                   145.26                   149.52                   40.186                   62.701                   118.07                   134.77                   145.58                   149.84                   40.237                   62.822                   118.25                   134.98                   145.81                   150.06                   40.226                   62.835                   118.45                   135.26                   146.11                   150.38                   40.307                   62.965                   118.80                   135.79                   146.67                   150.96                   40.144                   62.682                   118.67                   135.74                   146.69                   150.99                   40.363                   63.100                   119.36                   136.38                   147.40                   151.70                   39.894                   62.249                   117.98                   134.98                   145.91                   150.20                   38.220                   58.754                   109.79                   125.29                   135.25                   139.24                   36.207                   52.554                   89.588                   100.12                   106.86                   109.63
16.000                   2.2500                   1.5000                   2000.0                   2500.0                   15.000                   67.572                   97.730                   161.99                   180.52                   192.30                   196.73                   67.603                   97.683                   161.78                   180.34                   192.09                   196.52                   67.683                   97.809                   161.96                   180.54                   192.33                   196.77                   67.712                   97.951                   162.60                   181.31                   193.14                   197.60                   67.806                   98.057                   162.77                   181.59                   193.40                   197.87                   67.630                   97.905                   162.83                   181.68                   193.48                   197.94                   67.975                   98.413                   163.84                   182.88                   194.93                   199.43                   66.956                   97.016                   161.59                   180.35                   192.19                   196.65                   62.702                   90.020                   148.84                   165.90                   176.66                   180.82                   58.126                   79.507                   121.27                   132.58                   139.66                   142.58
16.000                   2.2500                   1.5000                   2000.0                   2500.0                   20.000                   102.02                   135.95                   205.45                   225.33                   237.88                   242.45                   101.90                   135.60                   204.49                   224.33                   236.85                   241.42                   101.99                   135.71                   204.72                   224.63                   237.18                   241.75                   102.07                   135.93                   205.39                   225.41                   238.03                   242.58                   102.15                   136.03                   205.74                   225.92                   238.59                   243.19                   102.03                   136.01                   205.64                   225.74                   238.41                   243.02                   102.47                   136.61                   206.99                   227.60                   240.74                   245.45                   100.69                   134.33                   202.97                   223.03                   235.73                   240.35                   93.145                   123.56                   186.17                   204.16                   215.59                   219.86                   85.508                   108.91                   152.70                   164.68                   172.15                   175.29
16.000                   2.2500                   1.5000                   2000.0                   2500.0                   25.000                   139.18                   175.23                   249.49                   270.70                   283.98                   288.66                   138.84                   174.62                   248.26                   269.27                   282.41                   287.12                   138.91                   174.68                   248.61                   269.87                   283.14                   287.84                   139.03                   174.84                   248.39                   269.39                   282.53                   287.15                   139.07                   175.04                   250.11                   271.85                   285.19                   289.81                   139.06                   175.10                   249.94                   271.33                   284.73                   289.51                   139.60                   175.97                   252.37                   274.78                   288.79                   293.53                   136.88                   172.60                   246.91                   268.29                   281.72                   286.46                   125.84                   157.89                   224.48                   243.27                   255.06                   259.34                   115.76                   140.17                   186.88                   199.66                   207.58                   210.86
16.000                   2.2500                   1.5000                   2000.0                   2500.0                   30.000                   177.62                   214.86                   292.52                   314.73                   328.82                   333.53                   177.12                   214.20                   290.90                   312.60                   326.24                   331.09                   177.10                   214.13                   292.12                   314.83                   329.23                   334.05                   177.20                   214.08                   290.46                   312.08                   325.58                   330.25                   177.20                   214.31                   292.14                   313.84                   326.83                   331.25                   177.32                   214.55                   292.68                   314.68                   328.51                   333.43                   178.06                   215.98                   297.54                   321.70                   336.51                   341.19                   174.28                   211.46                   290.90                   313.99                   328.54                   333.49                   159.71                   192.90                   263.18                   282.33                   294.23                   298.49                   147.24                   172.44                   220.93                   233.99                   242.17                   245.48
16.000                   2.2500                   1.5000                   2000.0                   2500.0                   35.000                   215.46                   254.53                   337.04                   361.42                   376.59                   381.59                   215.03                   254.14                   336.62                   360.97                   376.15                   381.15                   214.79                   253.77                   336.44                   360.90                   376.12                   381.13                   214.79                   253.52                   335.26                   359.49                   374.64                   379.64                   214.80                   253.76                   336.19                   360.55                   375.75                   380.75                   215.04                   254.17                   337.02                   361.51                   376.77                   381.79                   216.04                   255.92                   340.73                   365.67                   381.07                   386.11                   211.19                   250.35                   333.38                   357.75                   372.85                   377.82                   193.28                   227.88                   300.65                   321.83                   335.15                   339.72                   177.58                   203.79                   253.61                   267.02                   275.44                   278.60
16.000                   2.2500                   1.5000                   2000.0                   2500.0                   40.000                   253.29                   294.52                   382.84                   409.26                   425.47                   430.60                   253.05                   294.44                   383.03                   409.50                   425.74                   430.88                   252.58                   293.78                   382.15                   408.57                   424.79                   429.93                   252.43                   293.43                   381.47                   407.88                   424.11                   429.26                   252.48                   293.64                   381.96                   408.44                   424.73                   429.89                   252.80                   294.13                   382.78                   409.33                   425.63                   430.79                   253.97                   295.83                   385.29                   411.90                   428.23                   433.39                   248.01                   289.07                   376.46                   402.39                   418.32                   423.40                   226.75                   262.74                   338.98                   361.58                   375.71                   380.40                   207.61                   234.71                   286.38                   300.33                   309.07                   312.28
16.000                   2.2500                   1.5000                   2000.0                   2500.0                   45.000                   291.19                   334.74                   428.80                   457.10                   474.21                   479.44                   291.10                   334.78                   429.00                   457.30                   474.42                   479.65                   290.52                   334.06                   428.10                   456.38                   473.51                   478.74                   290.27                   333.68                   427.69                   456.03                   473.19                   478.43                   290.34                   333.85                   427.97                   456.35                   473.55                   478.80                   290.70                   334.35                   428.70                   457.13                   474.33                   479.58                   291.86                   335.88                   430.61                   459.03                   476.26                   481.50                   284.52                   327.56                   419.77                   447.33                   464.08                   469.24                   260.02                   297.53                   377.67                   401.59                   416.40                   421.16                   237.85                   265.90                   319.57                   334.11                   343.19                   346.43
16.000                   2.2500                   1.5000                   2000.0                   2500.0                   50.000                   329.11                   374.97                   474.73                   504.90                   522.92                   528.23                   329.14                   375.12                   474.93                   505.05                   523.05                   528.37                   328.46                   374.34                   474.03                   504.16                   522.17                   527.49                   328.12                   373.93                   473.86                   504.13                   522.21                   527.55                   328.20                   374.06                   473.94                   504.23                   522.36                   527.70                   328.60                   374.57                   474.60                   504.88                   522.98                   528.32                   329.74                   375.93                   475.93                   506.15                   524.27                   529.60                   321.02                   366.04                   463.07                   492.27                   509.83                   515.06                   293.27                   332.32                   416.36                   441.61                   457.10                   461.94                   268.12                   297.11                   352.78                   367.91                   377.32                   380.60
16.000                   2.2500                   1.5000                   2000.0                   2500.0                   55.000                   364.57                   412.38                   516.79                   548.69                   567.47                   572.80                   364.63                   412.50                   516.85                   548.65                   567.41                   572.73                   363.97                   411.78                   516.10                   547.94                   566.71                   572.03                   363.63                   411.42                   516.08                   548.09                   566.95                   572.30                   363.70                   411.53                   516.13                   548.19                   567.10                   572.45                   364.08                   411.99                   516.66                   548.66                   567.51                   572.85                   365.14                   413.22                   517.86                   549.84                   568.74                   574.08                   355.26                   402.12                   503.70                   534.60                   552.93                   558.18                   324.94                   365.49                   453.26                   479.71                   495.77                   500.63                   297.59                   327.42                   384.85                   400.50                   410.16                   413.44
16.000                   2.2500                   1.5000                   2000.0                   2500.0                   60.000                   399.25                   448.88                   557.63                   591.21                   610.71                   616.03                   399.31                   448.95                   557.51                   590.95                   610.41                   615.71                   398.70                   448.33                   556.96                   590.46                   609.93                   615.24                   398.39                   448.03                   557.05                   590.75                   610.33                   615.66                   398.45                   448.11                   557.13                   590.91                   610.55                   615.88                   398.80                   448.52                   557.50                   591.17                   610.72                   616.04                   399.76                   449.64                   558.71                   592.44                   612.10                   617.42                   388.78                   437.43                   543.49                   576.10                   595.19                   600.45                   356.12                   398.14                   489.58                   517.21                   533.80                   538.66                   326.80                   357.44                   416.56                   432.69                   442.60                   445.86
16.000                   2.2500                   1.5000                   2000.0                   2500.0                   65.000                   433.94                   485.39                   598.47                   633.73                   653.95                   659.25                   433.99                   485.41                   598.17                   633.24                   653.41                   658.69                   433.44                   484.87                   597.81                   632.98                   653.15                   658.45                   433.15                   484.65                   598.02                   633.41                   653.71                   659.02                   433.20                   484.70                   598.13                   633.63                   654.01                   659.32                   433.51                   485.05                   598.35                   633.68                   653.93                   659.24                   434.37                   486.05                   599.56                   635.03                   655.46                   660.76                   422.30                   472.74                   583.28                   617.61                   637.45                   642.72                   387.30                   430.80                   525.91                   554.70                   571.82                   576.70                   356.02                   387.45                   448.27                   464.89                   475.03                   478.27
16.000                   2.2500                   1.5000                   2000.0                   2500.0                   70.000                   468.62                   521.89                   639.31                   676.25                   697.20                   702.48                   468.67                   521.86                   638.83                   675.54                   696.41                   701.68                   468.17                   521.42                   638.66                   675.50                   696.38                   701.65                   467.91                   521.26                   638.99                   676.06                   697.09                   702.38                   467.94                   521.29                   639.12                   676.36                   697.46                   702.75                   468.22                   521.57                   639.20                   676.19                   697.14                   702.43                   468.99                   522.46                   640.40                   677.63                   698.81                   704.10                   455.82                   508.06                   623.06                   659.11                   679.71                   684.99                   418.48                   463.45                   562.24                   592.20                   609.85                   614.73                   385.24                   417.47                   479.98                   497.08                   507.46                   510.69
16.000                   2.2500                   1.5000                   2000.0                   2500.0                   75.000                   501.52                   555.85                   676.34                   715.36                   737.18                   742.47                   501.55                   555.77                   675.75                   714.49                   736.23                   741.51                   501.11                   555.41                   675.69                   714.56                   736.31                   741.58                   500.88                   555.31                   676.12                   715.25                   737.16                   742.46                   500.90                   555.34                   676.34                   715.70                   737.72                   743.01                   501.14                   555.56                   676.29                   715.36                   737.18                   742.48                   501.83                   556.37                   677.55                   716.95                   739.06                   744.35                   487.71                   541.02                   658.83                   696.51                   717.93                   723.22                   448.51                   494.64                   596.26                   627.25                   645.35                   650.21                   413.61                   446.60                   510.63                   528.17                   538.76                   541.95