% Model:              batchmodel_COIL_N_16_COIL_kr_2.25_COIL_kh_1.5_FUNZ_freq_2000_FUNZ_I_eff_1000.mph
% Version:            COMSOL 6.0.0.318
% Date:               Feb 8 2022, 22:07
% Table:              Tabella 1 - GRIGLIA_T
% COIL_N                 COIL_kr                  COIL_kh                  FUNZ_freq                FUNZ_I_eff               Time (s)                 Temperatura (degC), Point: (0, 0)Temperatura (degC), Point: (15, 0)Temperatura (degC), Point: (25.641, 0)Temperatura (degC), Point: (27.821, 0)Temperatura (degC), Point: (29.128, 0)Temperatura (degC), Point: (29.99, 0)Temperatura (degC), Point: (0, 62.5)Temperatura (degC), Point: (15, 62.5)Temperatura (degC), Point: (25.641, 62.5)Temperatura (degC), Point: (27.821, 62.5)Temperatura (degC), Point: (29.128, 62.5)Temperatura (degC), Point: (29.99, 62.5)Temperatura (degC), Point: (0, 125)Temperatura (degC), Point: (15, 125)Temperatura (degC), Point: (25.641, 125)Temperatura (degC), Point: (27.821, 125)Temperatura (degC), Point: (29.128, 125)Temperatura (degC), Point: (29.99, 125)Temperatura (degC), Point: (0, 187.5)Temperatura (degC), Point: (15, 187.5)Temperatura (degC), Point: (25.641, 187.5)Temperatura (degC), Point: (27.821, 187.5)Temperatura (degC), Point: (29.128, 187.5)Temperatura (degC), Point: (29.99, 187.5)Temperatura (degC), Point: (0, 250)Temperatura (degC), Point: (15, 250)Temperatura (degC), Point: (25.641, 250)Temperatura (degC), Point: (27.821, 250)Temperatura (degC), Point: (29.128, 250)Temperatura (degC), Point: (29.99, 250)Temperatura (degC), Point: (0, 312.5)Temperatura (degC), Point: (15, 312.5)Temperatura (degC), Point: (25.641, 312.5)Temperatura (degC), Point: (27.821, 312.5)Temperatura (degC), Point: (29.128, 312.5)Temperatura (degC), Point: (29.99, 312.5)Temperatura (degC), Point: (0, 375)Temperatura (degC), Point: (15, 375)Temperatura (degC), Point: (25.641, 375)Temperatura (degC), Point: (27.821, 375)Temperatura (degC), Point: (29.128, 375)Temperatura (degC), Point: (29.99, 375)Temperatura (degC), Point: (0, 437.5)Temperatura (degC), Point: (15, 437.5)Temperatura (degC), Point: (25.641, 437.5)Temperatura (degC), Point: (27.821, 437.5)Temperatura (degC), Point: (29.128, 437.5)Temperatura (degC), Point: (29.99, 437.5)Temperatura (degC), Point: (0, 468.75)Temperatura (degC), Point: (15, 468.75)Temperatura (degC), Point: (25.641, 468.75)Temperatura (degC), Point: (27.821, 468.75)Temperatura (degC), Point: (29.128, 468.75)Temperatura (degC), Point: (29.99, 468.75)Temperatura (degC), Point: (0, 492.19)Temperatura (degC), Point: (15, 492.19)Temperatura (degC), Point: (25.641, 492.19)Temperatura (degC), Point: (27.821, 492.19)Temperatura (degC), Point: (29.128, 492.19)Temperatura (degC), Point: (29.99, 492.19)
16.000                   2.2500                   1.5000                   2000.0                   1000.0                   0.0000                   20.000                   20.000                   20.000                   20.000                   20.001                   20.035                   20.000                   20.000                   20.000                   20.000                   20.001                   20.035                   20.000                   20.000                   20.000                   20.000                   20.001                   20.035                   20.000                   20.000                   20.000                   20.000                   20.001                   20.035                   20.000                   20.000                   20.000                   20.000                   20.001                   20.035                   20.000                   20.000                   20.000                   20.000                   20.001                   20.035                   20.000                   20.000                   20.000                   20.000                   20.001                   20.036                   20.000                   20.000                   20.000                   20.000                   20.001                   20.035                   20.000                   20.000                   20.000                   20.000                   20.000                   20.033                   20.000                   20.000                   20.000                   20.000                   20.000                   20.022
16.000                   2.2500                   1.5000                   2000.0                   1000.0                   5.0000                   20.888                   23.024                   31.326                   34.485                   36.684                   37.835                   20.887                   23.022                   31.311                   34.471                   36.666                   37.817                   20.887                   23.022                   31.342                   34.527                   36.713                   37.863                   20.888                   23.025                   31.350                   34.535                   36.727                   37.880                   20.886                   23.021                   31.330                   34.519                   36.709                   37.861                   20.890                   23.033                   31.377                   34.575                   36.774                   37.931                   20.892                   23.043                   31.416                   34.621                   36.826                   37.985                   20.889                   23.037                   31.397                   34.591                   36.782                   37.934                   20.785                   22.716                   30.269                   33.130                   35.111                   36.161                   20.572                   21.807                   26.322                   27.985                   29.136                   29.783
16.000                   2.2500                   1.5000                   2000.0                   1000.0                   10.000                   24.580                   29.383                   41.376                   45.003                   47.302                   48.473                   24.578                   29.374                   41.331                   44.923                   47.243                   48.418                   24.574                   29.371                   41.361                   44.958                   47.282                   48.458                   24.586                   29.399                   41.418                   45.036                   47.362                   48.538                   24.577                   29.378                   41.387                   45.020                   47.334                   48.512                   24.600                   29.438                   41.591                   45.289                   47.610                   48.788                   24.604                   29.455                   41.664                   45.367                   47.706                   48.890                   24.527                   29.310                   41.285                   44.900                   47.219                   48.395                   23.923                   28.116                   38.592                   41.751                   43.824                   44.894                   22.987                   25.854                   32.488                   34.384                   35.601                   36.258
16.000                   2.2500                   1.5000                   2000.0                   1000.0                   15.000                   31.240                   37.274                   50.498                   54.258                   56.618                   57.802                   31.239                   37.266                   50.450                   54.170                   56.544                   57.733                   31.243                   37.277                   50.506                   54.242                   56.617                   57.805                   31.286                   37.349                   50.638                   54.394                   56.776                   57.967                   31.267                   37.317                   50.599                   54.382                   56.753                   57.943                   31.317                   37.405                   50.796                   54.618                   56.998                   58.190                   31.313                   37.430                   50.944                   54.795                   57.193                   58.391                   30.930                   36.891                   50.043                   53.795                   56.155                   57.341                   29.350                   34.491                   45.843                   49.095                   51.203                   52.280                   27.467                   31.066                   38.356                   40.309                   41.543                   42.203
16.000                   2.2500                   1.5000                   2000.0                   1000.0                   20.000                   38.455                   45.427                   59.600                   63.477                   65.885                   67.079                   38.466                   45.440                   59.589                   63.432                   65.848                   67.048                   38.487                   45.472                   59.665                   63.528                   65.945                   67.143                   38.554                   45.574                   59.831                   63.709                   66.138                   67.340                   38.522                   45.528                   59.782                   63.690                   66.112                   67.313                   38.610                   45.654                   59.984                   63.908                   66.337                   67.541                   38.589                   45.673                   60.173                   64.144                   66.591                   67.802                   37.817                   44.665                   58.693                   62.555                   64.954                   66.149                   35.171                   41.008                   52.981                   56.300                   58.438                   59.521                   32.354                   36.493                   44.244                   46.235                   47.481                   48.144
16.000                   2.2500                   1.5000                   2000.0                   1000.0                   25.000                   46.500                   53.972                   68.674                   72.645                   75.078                   76.277                   46.540                   54.034                   68.757                   72.717                   75.158                   76.362                   46.591                   54.098                   68.845                   72.818                   75.262                   76.465                   46.675                   54.209                   68.983                   72.961                   75.422                   76.630                   46.627                   54.148                   68.923                   72.916                   75.381                   76.590                   46.769                   54.328                   69.144                   73.141                   75.602                   76.815                   46.715                   54.320                   69.326                   73.377                   75.858                   77.077                   45.430                   52.730                   67.178                   71.114                   73.548                   74.748                   41.585                   47.739                   59.946                   63.299                   65.456                   66.542                   37.849                   42.243                   50.160                   52.164                   53.415                   54.078
16.000                   2.2500                   1.5000                   2000.0                   1000.0                   30.000                   55.167                   62.852                   77.817                   81.843                   84.306                   85.514                   55.232                   62.947                   77.963                   81.991                   84.462                   85.673                   55.323                   63.049                   78.068                   82.103                   84.582                   85.792                   55.413                   63.161                   78.190                   82.221                   84.718                   85.935                   55.365                   63.104                   78.138                   82.185                   84.684                   85.900                   55.584                   63.371                   78.464                   82.515                   85.012                   86.232                   55.464                   63.294                   78.588                   82.700                   85.217                   86.445                   53.487                   60.981                   75.678                   79.662                   82.118                   83.323                   48.416                   54.685                   67.014                   70.395                   72.569                   73.660                   43.898                   48.372                   56.348                   58.359                   59.614                   60.277
16.000                   2.2500                   1.5000                   2000.0                   1000.0                   35.000                   63.989                   71.815                   86.978                   91.047                   93.543                   94.760                   64.078                   71.940                   87.179                   91.263                   93.766                   94.983                   64.211                   72.082                   87.301                   91.388                   93.902                   95.120                   64.306                   72.192                   87.411                   91.483                   94.018                   95.243                   64.262                   72.143                   87.371                   91.463                   93.995                   95.219                   64.562                   72.505                   87.824                   91.925                   94.457                   95.686                   64.369                   72.350                   87.876                   92.045                   94.599                   95.837                   61.655                   69.278                   84.181                   88.207                   90.682                   91.892                   55.351                   61.685                   74.107                   77.514                   79.706                   80.802                   50.086                   54.596                   62.603                   64.621                   65.879                   66.542
16.000                   2.2500                   1.5000                   2000.0                   1000.0                   40.000                   72.812                   80.779                   96.139                   100.25                   102.78                   104.01                   72.924                   80.933                   96.394                   100.54                   103.07                   104.29                   73.100                   81.114                   96.534                   100.67                   103.22                   104.45                   73.199                   81.223                   96.631                   100.75                   103.32                   104.55                   73.158                   81.182                   96.604                   100.74                   103.31                   104.54                   73.540                   81.639                   97.184                   101.33                   103.90                   105.14                   73.274                   81.406                   97.164                   101.39                   103.98                   105.23                   69.824                   77.576                   92.685                   96.752                   99.246                   100.46                   62.286                   68.685                   81.201                   84.634                   86.843                   87.943                   56.274                   60.820                   68.858                   70.882                   72.145                   72.807
16.000                   2.2500                   1.5000                   2000.0                   1000.0                   45.000                   81.934                   90.035                   105.64                   109.81                   112.38                   113.61                   82.081                   90.230                   105.95                   110.17                   112.74                   113.98                   82.293                   90.447                   106.13                   110.35                   112.94                   114.17                   82.400                   90.559                   106.22                   110.40                   113.01                   114.26                   82.348                   90.501                   106.16                   110.36                   112.96                   114.20                   82.841                   91.090                   106.91                   111.14                   113.74                   114.99                   82.468                   90.740                   106.75                   111.05                   113.68                   114.94                   78.176                   86.051                   101.40                   105.53                   108.05                   109.27                   69.440                   75.894                   88.517                   91.982                   94.213                   95.319                   62.768                   67.342                   75.414                   77.446                   78.713                   79.377
16.000                   2.2500                   1.5000                   2000.0                   1000.0                   50.000                   91.257                   99.487                   115.36                   119.60                   122.21                   123.46                   91.445                   99.731                   115.74                   120.06                   122.67                   123.91                   91.689                   99.980                   115.98                   120.30                   122.92                   124.17                   91.806                   100.10                   116.06                   120.32                   122.97                   124.23                   91.732                   100.01                   115.92                   120.20                   122.84                   124.09                   92.357                   100.75                   116.88                   121.20                   123.85                   125.10                   91.856                   100.26                   116.54                   120.91                   123.60                   124.87                   86.652                   94.644                   110.25                   114.46                   117.01                   118.24                   76.740                   83.243                   95.982                   99.483                   101.74                   102.85                   69.467                   74.061                   82.170                   84.211                   85.485                   86.148
16.000                   2.2500                   1.5000                   2000.0                   1000.0                   55.000                   100.58                   108.94                   125.09                   129.40                   132.05                   133.31                   100.81                   109.23                   125.53                   129.94                   132.59                   133.84                   101.09                   109.51                   125.82                   130.25                   132.91                   134.16                   101.21                   109.64                   125.89                   130.25                   132.93                   134.20                   101.12                   109.51                   125.69                   130.04                   132.72                   133.98                   101.87                   110.41                   126.86                   131.26                   133.95                   135.22                   101.24                   109.78                   126.33                   130.78                   133.51                   134.79                   95.127                   103.24                   119.10                   123.39                   125.98                   127.21                   84.039                   90.592                   103.45                   106.98                   109.26                   110.38                   76.166                   80.781                   88.926                   90.977                   92.256                   92.920
16.000                   2.2500                   1.5000                   2000.0                   1000.0                   60.000                   109.90                   118.39                   134.81                   139.19                   141.89                   143.16                   110.17                   118.73                   135.32                   139.82                   142.51                   143.77                   110.48                   119.05                   135.67                   140.19                   142.89                   144.15                   110.62                   119.18                   135.72                   140.17                   142.89                   144.17                   110.50                   119.02                   135.45                   139.87                   142.60                   143.87                   111.39                   120.08                   136.83                   141.32                   144.05                   145.33                   110.63                   119.30                   136.12                   140.64                   143.42                   144.72                   103.60                   111.83                   127.94                   132.32                   134.94                   136.18                   91.339                   97.941                   110.91                   114.49                   116.79                   117.91                   82.864                   87.501                   95.682                   97.742                   99.027                   99.692
16.000                   2.2500                   1.5000                   2000.0                   1000.0                   65.000                   119.22                   127.84                   144.53                   148.98                   151.73                   153.01                   119.54                   128.23                   145.11                   149.70                   152.44                   153.71                   119.88                   128.58                   145.51                   150.14                   152.87                   154.14                   120.02                   128.72                   145.56                   150.09                   152.85                   154.14                   119.89                   128.52                   145.22                   149.71                   152.48                   153.76                   120.90                   129.74                   146.80                   151.38                   154.16                   155.45                   120.02                   128.82                   145.91                   150.51                   153.34                   154.65                   112.08                   120.42                   136.79                   141.25                   143.91                   145.15                   98.638                   105.29                   118.38                   121.99                   124.31                   125.45                   89.563                   94.220                   102.44                   104.51                   105.80                   106.46
16.000                   2.2500                   1.5000                   2000.0                   1000.0                   70.000                   128.72                   137.46                   154.42                   158.95                   161.73                   163.01                   129.07                   137.89                   155.04                   159.71                   162.49                   163.77                   129.45                   138.28                   155.50                   160.20                   162.97                   164.26                   129.60                   138.43                   155.54                   160.14                   162.95                   164.24                   129.45                   138.20                   155.15                   159.71                   162.52                   163.81                   130.58                   139.55                   156.88                   161.52                   164.34                   165.64                   129.60                   138.54                   155.93                   160.60                   163.48                   164.80                   120.63                   129.08                   145.69                   150.20                   152.90                   154.15                   106.09                   112.80                   126.01                   129.66                   132.01                   133.15                   96.470                   101.15                   109.41                   111.49                   112.79                   113.45
16.000                   2.2500                   1.5000                   2000.0                   1000.0                   75.000                   138.33                   147.20                   164.41                   169.02                   171.83                   173.13                   138.71                   147.66                   165.07                   169.81                   172.64                   173.93                   139.14                   148.11                   165.57                   170.33                   173.16                   174.45                   139.29                   148.24                   165.61                   170.28                   173.12                   174.43                   139.12                   148.00                   165.19                   169.82                   172.66                   173.97                   140.36                   149.45                   167.02                   171.72                   174.57                   175.88                   139.31                   148.40                   166.10                   170.84                   173.76                   175.09                   129.23                   137.79                   154.61                   159.18                   161.91                   163.17                   113.64                   120.41                   133.76                   137.44                   139.82                   140.97                   103.52                   108.22                   116.53                   118.62                   119.92                   120.59