% Model:              batchmodel_COIL_N_16_COIL_kr_3_COIL_kh_1_FUNZ_freq_10000_FUNZ_I_eff_4000.mph
% Version:            COMSOL 6.0.0.318
% Date:               Feb 8 2022, 23:51
% Table:              Tabella 1 - GRIGLIA_T
% COIL_N                 COIL_kr                  COIL_kh                  FUNZ_freq                FUNZ_I_eff               Time (s)                 Temperatura (degC), Point: (0, 0)Temperatura (degC), Point: (15, 0)Temperatura (degC), Point: (28.051, 0)Temperatura (degC), Point: (29.025, 0)Temperatura (degC), Point: (29.61, 0)Temperatura (degC), Point: (29.99, 0)Temperatura (degC), Point: (0, 62.5)Temperatura (degC), Point: (15, 62.5)Temperatura (degC), Point: (28.051, 62.5)Temperatura (degC), Point: (29.025, 62.5)Temperatura (degC), Point: (29.61, 62.5)Temperatura (degC), Point: (29.99, 62.5)Temperatura (degC), Point: (0, 125)Temperatura (degC), Point: (15, 125)Temperatura (degC), Point: (28.051, 125)Temperatura (degC), Point: (29.025, 125)Temperatura (degC), Point: (29.61, 125)Temperatura (degC), Point: (29.99, 125)Temperatura (degC), Point: (0, 187.5)Temperatura (degC), Point: (15, 187.5)Temperatura (degC), Point: (28.051, 187.5)Temperatura (degC), Point: (29.025, 187.5)Temperatura (degC), Point: (29.61, 187.5)Temperatura (degC), Point: (29.99, 187.5)Temperatura (degC), Point: (0, 250)Temperatura (degC), Point: (15, 250)Temperatura (degC), Point: (28.051, 250)Temperatura (degC), Point: (29.025, 250)Temperatura (degC), Point: (29.61, 250)Temperatura (degC), Point: (29.99, 250)Temperatura (degC), Point: (0, 312.5)Temperatura (degC), Point: (15, 312.5)Temperatura (degC), Point: (28.051, 312.5)Temperatura (degC), Point: (29.025, 312.5)Temperatura (degC), Point: (29.61, 312.5)Temperatura (degC), Point: (29.99, 312.5)Temperatura (degC), Point: (0, 375)Temperatura (degC), Point: (15, 375)Temperatura (degC), Point: (28.051, 375)Temperatura (degC), Point: (29.025, 375)Temperatura (degC), Point: (29.61, 375)Temperatura (degC), Point: (29.99, 375)Temperatura (degC), Point: (0, 437.5)Temperatura (degC), Point: (15, 437.5)Temperatura (degC), Point: (28.051, 437.5)Temperatura (degC), Point: (29.025, 437.5)Temperatura (degC), Point: (29.61, 437.5)Temperatura (degC), Point: (29.99, 437.5)Temperatura (degC), Point: (0, 468.75)Temperatura (degC), Point: (15, 468.75)Temperatura (degC), Point: (28.051, 468.75)Temperatura (degC), Point: (29.025, 468.75)Temperatura (degC), Point: (29.61, 468.75)Temperatura (degC), Point: (29.99, 468.75)Temperatura (degC), Point: (0, 492.19)Temperatura (degC), Point: (15, 492.19)Temperatura (degC), Point: (28.051, 492.19)Temperatura (degC), Point: (29.025, 492.19)Temperatura (degC), Point: (29.61, 492.19)Temperatura (degC), Point: (29.99, 492.19)
16.000                   3.0000                   1.0000                   10000                    4000.0                   0.0000                   20.000                   20.000                   20.000                   20.000                   20.207                   20.761                   20.000                   20.000                   20.000                   20.000                   20.208                   20.761                   20.000                   20.000                   20.000                   20.000                   20.208                   20.762                   20.000                   20.000                   20.000                   20.000                   20.208                   20.762                   20.000                   20.000                   20.000                   20.000                   20.208                   20.763                   20.000                   20.000                   20.000                   20.000                   20.209                   20.764                   20.000                   20.000                   20.000                   20.000                   20.209                   20.764                   20.000                   20.000                   20.000                   20.000                   20.205                   20.757                   20.000                   20.000                   20.000                   20.000                   20.194                   20.732                   20.000                   20.000                   20.000                   20.000                   20.183                   20.706
16.000                   3.0000                   1.0000                   10000                    4000.0                   5.0000                   34.170                   87.385                   445.41                   505.94                   539.97                   550.09                   33.982                   86.864                   442.58                   504.74                   539.53                   549.61                   33.880                   86.263                   436.54                   495.90                   527.56                   537.92                   33.975                   86.913                   446.33                   507.90                   540.49                   550.60                   34.043                   87.403                   450.59                   514.61                   551.32                   561.72                   33.950                   86.703                   440.53                   502.63                   537.69                   547.59                   34.048                   87.461                   450.89                   514.98                   550.92                   561.24                   33.788                   86.035                   435.55                   496.19                   530.50                   540.41                   33.205                   82.680                   406.35                   461.27                   493.06                   502.29                   40.945                   92.245                   377.76                   422.43                   448.94                   456.98
16.000                   3.0000                   1.0000                   10000                    4000.0                   10.000                   119.72                   240.43                   784.52                   888.75                   942.11                   955.17                   119.15                   239.70                   789.82                   897.38                   951.85                   965.04                   118.58                   238.68                   799.43                   917.30                   971.67                   983.54                   119.32                   240.42                   803.92                   921.10                   977.09                   989.51                   119.65                   241.01                   792.96                   900.98                   953.36                   966.07                   118.77                   238.72                   783.56                   890.08                   942.36                   955.16                   119.79                   241.30                   792.68                   901.17                   953.56                   966.13                   117.62                   236.31                   771.93                   876.62                   927.08                   939.62                   113.56                   225.77                   714.04                   801.20                   848.03                   860.17                   124.94                   232.85                   638.70                   698.83                   732.10                   741.23
16.000                   3.0000                   1.0000                   10000                    4000.0                   15.000                   244.44                   389.30                   880.93                   932.86                   956.78                   962.11                   243.88                   391.67                   1106.1                   1156.1                   1168.0                   1168.3                   243.25                   391.60                   1134.5                   1180.1                   1190.6                   1190.6                   244.46                   392.73                   1068.6                   1121.5                   1134.8                   1135.6                   244.56                   390.71                   944.83                   1002.6                   1024.6                   1028.6                   243.02                   386.87                   912.47                   976.82                   1005.9                   1012.2                   244.86                   390.91                   918.54                   970.67                   992.80                   997.40                   240.47                   385.87                   1109.1                   1161.2                   1173.6                   1174.0                   232.31                   368.96                   910.06                   982.42                   1013.6                   1020.1                   239.89                   368.09                   792.13                   858.63                   892.38                   900.53
16.000                   3.0000                   1.0000                   10000                    4000.0                   20.000                   360.69                   502.87                   922.57                   957.76                   974.03                   977.51                   361.09                   512.60                   1140.2                   1165.4                   1170.4                   1169.5                   360.81                   513.23                   1143.8                   1168.1                   1172.9                   1171.9                   361.89                   511.84                   1098.1                   1128.3                   1135.4                   1135.0                   361.05                   505.69                   1006.2                   1046.6                   1059.6                   1061.1                   358.70                   498.46                   929.13                   971.25                   991.13                   995.44                   361.54                   506.60                   988.91                   1027.2                   1040.5                   1042.4                   356.80                   506.72                   1136.9                   1163.6                   1169.2                   1168.4                   345.76                   486.80                   1022.8                   1065.5                   1078.0                   1079.2                   346.86                   475.61                   886.08                   937.19                   961.73                   967.25
16.000                   3.0000                   1.0000                   10000                    4000.0                   25.000                   456.41                   588.92                   976.82                   1002.8                   1013.9                   1015.8                   457.86                   602.20                   1134.9                   1151.9                   1154.9                   1153.6                   457.90                   602.88                   1133.9                   1150.7                   1153.7                   1152.4                   458.63                   600.02                   1108.5                   1129.2                   1133.6                   1132.7                   456.98                   591.95                   1047.7                   1076.9                   1085.1                   1085.3                   454.18                   584.08                   965.26                   993.96                   1006.7                   1009.2                   457.78                   594.39                   1050.0                   1076.5                   1083.6                   1083.6                   453.62                   596.38                   1130.0                   1148.5                   1151.9                   1150.8                   442.13                   579.01                   1066.2                   1091.6                   1097.7                   1097.4                   437.81                   560.80                   935.97                   971.59                   988.74                   992.50
16.000                   3.0000                   1.0000                   10000                    4000.0                   30.000                   536.27                   657.52                   1051.5                   1073.0                   1078.6                   1078.4                   538.48                   671.21                   1121.4                   1134.4                   1136.3                   1135.0                   538.74                   671.98                   1120.9                   1133.8                   1135.7                   1134.4                   539.20                   668.71                   1106.5                   1121.4                   1124.1                   1122.9                   537.07                   660.47                   1076.5                   1095.7                   1100.2                   1099.5                   534.18                   653.35                   1034.6                   1057.8                   1064.7                   1064.8                   538.20                   664.09                   1085.2                   1102.2                   1105.7                   1104.8                   534.45                   665.59                   1114.9                   1129.0                   1131.4                   1130.1                   523.60                   652.01                   1088.1                   1105.0                   1108.4                   1107.5                   515.39                   631.17                   1028.2                   1056.3                   1064.7                   1065.2
16.000                   3.0000                   1.0000                   10000                    4000.0                   35.000                   598.27                   709.85                   1089.1                   1103.4                   1106.1                   1105.1                   600.54                   721.54                   1117.2                   1127.7                   1129.1                   1127.6                   600.90                   722.23                   1117.3                   1127.8                   1129.1                   1127.7                   601.24                   719.63                   1109.8                   1121.2                   1122.9                   1121.5                   599.16                   712.54                   1096.2                   1109.6                   1112.0                   1110.8                   596.58                   706.91                   1082.1                   1097.5                   1100.7                   1099.7                   600.37                   716.22                   1102.4                   1114.6                   1116.6                   1115.3                   596.90                   716.32                   1112.4                   1123.7                   1125.4                   1124.0                   587.48                   705.62                   1098.4                   1111.2                   1113.4                   1112.2                   578.53                   689.76                   1100.0                   1116.0                   1119.0                   1117.9
16.000                   3.0000                   1.0000                   10000                    4000.0                   40.000                   648.94                   756.19                   1109.4                   1119.2                   1120.4                   1119.0                   650.94                   765.78                   1120.9                   1129.3                   1130.1                   1128.5                   651.35                   766.53                   1121.3                   1129.6                   1130.4                   1128.8                   651.64                   764.66                   1118.0                   1126.7                   1127.5                   1126.0                   649.82                   758.64                   1111.9                   1121.4                   1122.5                   1121.1                   647.61                   753.99                   1107.1                   1117.3                   1118.7                   1117.3                   650.98                   762.19                   1115.6                   1124.6                   1125.6                   1124.0                   647.77                   760.70                   1117.6                   1126.5                   1127.4                   1125.9                   639.82                   751.02                   1108.1                   1117.9                   1119.2                   1117.7                   632.39                   743.82                   1137.8                   1147.1                   1147.9                   1146.2
16.000                   3.0000                   1.0000                   10000                    4000.0                   45.000                   689.93                   802.27                   1123.7                   1130.7                   1131.0                   1129.3                   691.57                   809.58                   1128.5                   1135.0                   1135.1                   1133.4                   691.97                   810.48                   1128.9                   1135.4                   1135.5                   1133.8                   692.24                   809.35                   1127.8                   1134.3                   1134.5                   1132.7                   690.77                   804.44                   1125.0                   1131.9                   1132.2                   1130.5                   688.91                   800.31                   1123.2                   1130.3                   1130.6                   1129.0                   691.79                   807.76                   1127.2                   1133.8                   1134.0                   1132.3                   688.87                   804.57                   1126.0                   1132.8                   1133.0                   1131.4                   682.37                   794.48                   1117.7                   1125.1                   1125.6                   1124.0                   677.84                   799.37                   1163.5                   1169.2                   1168.9                   1167.0
16.000                   3.0000                   1.0000                   10000                    4000.0                   50.000                   722.48                   848.73                   1135.8                   1140.9                   1140.7                   1138.9                   723.83                   853.81                   1138.0                   1143.0                   1142.7                   1140.8                   724.24                   854.72                   1138.4                   1143.4                   1143.0                   1141.2                   724.62                   854.29                   1138.2                   1143.1                   1142.8                   1140.9                   723.31                   850.63                   1136.8                   1141.9                   1141.6                   1139.8                   721.57                   847.10                   1135.9                   1141.1                   1140.8                   1139.0                   724.30                   853.36                   1138.2                   1143.2                   1142.9                   1141.0                   721.07                   848.82                   1135.7                   1140.9                   1140.6                   1138.8                   715.30                   838.74                   1127.8                   1133.4                   1133.3                   1131.5                   715.42                   858.17                   1184.6                   1188.5                   1187.6                   1185.5
16.000                   3.0000                   1.0000                   10000                    4000.0                   55.000                   750.56                   894.32                   1147.1                   1151.0                   1150.3                   1148.3                   751.67                   897.55                   1148.5                   1152.3                   1151.5                   1149.6                   752.20                   898.37                   1148.9                   1152.6                   1151.9                   1149.9                   752.81                   898.48                   1148.9                   1152.6                   1151.9                   1149.9                   751.42                   895.95                   1148.1                   1151.9                   1151.2                   1149.2                   749.49                   893.04                   1147.4                   1151.2                   1150.5                   1148.6                   752.57                   897.98                   1149.1                   1152.9                   1152.1                   1150.2                   748.30                   892.44                   1146.0                   1149.9                   1149.2                   1147.3                   742.26                   883.22                   1138.2                   1142.4                   1141.9                   1140.0                   748.60                   917.40                   1204.1                   1206.9                   1205.7                   1203.4
16.000                   3.0000                   1.0000                   10000                    4000.0                   60.000                   787.21                   937.93                   1159.1                   1161.9                   1160.8                   1158.7                   788.11                   939.71                   1159.9                   1162.6                   1161.5                   1159.4                   788.73                   940.44                   1160.2                   1162.9                   1161.8                   1159.7                   789.53                   940.94                   1160.5                   1163.2                   1162.1                   1160.0                   788.16                   939.31                   1160.1                   1162.8                   1161.7                   1159.6                   786.06                   936.94                   1159.4                   1162.2                   1161.1                   1159.1                   789.34                   940.73                   1160.8                   1163.5                   1162.4                   1160.3                   783.79                   934.43                   1157.0                   1159.8                   1158.8                   1156.8                   777.91                   926.55                   1149.7                   1152.6                   1151.6                   1149.6                   793.11                   973.43                   1224.5                   1226.4                   1224.7                   1222.3
16.000                   3.0000                   1.0000                   10000                    4000.0                   65.000                   837.25                   978.44                   1172.2                   1174.1                   1172.7                   1170.6                   837.99                   979.40                   1172.7                   1174.6                   1173.2                   1171.0                   838.63                   980.03                   1173.0                   1174.9                   1173.5                   1171.3                   839.57                   980.67                   1173.4                   1175.2                   1173.8                   1171.7                   838.40                   979.61                   1173.1                   1175.0                   1173.6                   1171.4                   836.10                   977.62                   1172.5                   1174.5                   1173.1                   1170.9                   839.41                   980.57                   1173.6                   1175.5                   1174.1                   1172.0                   832.20                   973.84                   1169.2                   1171.2                   1169.9                   1167.7                   827.12                   968.09                   1162.6                   1164.6                   1163.3                   1161.1                   855.33                   1024.5                   1246.2                   1247.4                   1245.5                   1242.9
16.000                   3.0000                   1.0000                   10000                    4000.0                   70.000                   887.62                   1017.2                   1186.2                   1187.4                   1185.7                   1183.4                   888.15                   1017.5                   1186.4                   1187.6                   1185.9                   1183.6                   888.78                   1018.0                   1186.7                   1187.9                   1186.2                   1183.9                   889.81                   1018.8                   1187.2                   1188.3                   1186.7                   1184.4                   888.86                   1018.2                   1187.1                   1188.3                   1186.6                   1184.3                   886.49                   1016.5                   1186.5                   1187.7                   1186.0                   1183.8                   889.65                   1018.7                   1187.4                   1188.6                   1186.9                   1184.7                   881.23                   1011.6                   1182.3                   1183.6                   1182.0                   1179.7                   877.62                   1008.2                   1176.7                   1177.8                   1176.2                   1173.9                   916.89                   1072.8                   1268.4                   1268.9                   1266.7                   1264.1
16.000                   3.0000                   1.0000                   10000                    4000.0                   75.000                   938.65                   1052.4                   1202.0                   1202.6                   1200.7                   1198.3                   938.89                   1052.3                   1202.1                   1202.7                   1200.8                   1198.4                   939.47                   1052.8                   1202.4                   1203.0                   1201.1                   1198.7                   940.45                   1053.5                   1202.9                   1203.5                   1201.6                   1199.2                   939.75                   1053.2                   1202.9                   1203.5                   1201.6                   1199.2                   937.59                   1051.7                   1202.3                   1202.9                   1201.0                   1198.7                   940.25                   1053.4                   1203.1                   1203.7                   1201.8                   1199.4                   931.53                   1046.2                   1197.2                   1197.9                   1196.1                   1193.7                   930.74                   1045.4                   1193.1                   1193.6                   1191.7                   1189.3                   977.12                   1115.7                   1291.6                   1291.6                   1289.1                   1286.3
