% Model:              batchmodel_COIL_N_16_COIL_kr_3_COIL_kh_1.5_FUNZ_freq_2000_FUNZ_I_eff_1000.mph
% Version:            COMSOL 6.0.0.318
% Date:               Feb 8 2022, 23:26
% Table:              Tabella 1 - GRIGLIA_T
% COIL_N                 COIL_kr                  COIL_kh                  FUNZ_freq                FUNZ_I_eff               Time (s)                 Temperatura (degC), Point: (0, 0)Temperatura (degC), Point: (15, 0)Temperatura (degC), Point: (25.641, 0)Temperatura (degC), Point: (27.821, 0)Temperatura (degC), Point: (29.128, 0)Temperatura (degC), Point: (29.99, 0)Temperatura (degC), Point: (0, 62.5)Temperatura (degC), Point: (15, 62.5)Temperatura (degC), Point: (25.641, 62.5)Temperatura (degC), Point: (27.821, 62.5)Temperatura (degC), Point: (29.128, 62.5)Temperatura (degC), Point: (29.99, 62.5)Temperatura (degC), Point: (0, 125)Temperatura (degC), Point: (15, 125)Temperatura (degC), Point: (25.641, 125)Temperatura (degC), Point: (27.821, 125)Temperatura (degC), Point: (29.128, 125)Temperatura (degC), Point: (29.99, 125)Temperatura (degC), Point: (0, 187.5)Temperatura (degC), Point: (15, 187.5)Temperatura (degC), Point: (25.641, 187.5)Temperatura (degC), Point: (27.821, 187.5)Temperatura (degC), Point: (29.128, 187.5)Temperatura (degC), Point: (29.99, 187.5)Temperatura (degC), Point: (0, 250)Temperatura (degC), Point: (15, 250)Temperatura (degC), Point: (25.641, 250)Temperatura (degC), Point: (27.821, 250)Temperatura (degC), Point: (29.128, 250)Temperatura (degC), Point: (29.99, 250)Temperatura (degC), Point: (0, 312.5)Temperatura (degC), Point: (15, 312.5)Temperatura (degC), Point: (25.641, 312.5)Temperatura (degC), Point: (27.821, 312.5)Temperatura (degC), Point: (29.128, 312.5)Temperatura (degC), Point: (29.99, 312.5)Temperatura (degC), Point: (0, 375)Temperatura (degC), Point: (15, 375)Temperatura (degC), Point: (25.641, 375)Temperatura (degC), Point: (27.821, 375)Temperatura (degC), Point: (29.128, 375)Temperatura (degC), Point: (29.99, 375)Temperatura (degC), Point: (0, 437.5)Temperatura (degC), Point: (15, 437.5)Temperatura (degC), Point: (25.641, 437.5)Temperatura (degC), Point: (27.821, 437.5)Temperatura (degC), Point: (29.128, 437.5)Temperatura (degC), Point: (29.99, 437.5)Temperatura (degC), Point: (0, 468.75)Temperatura (degC), Point: (15, 468.75)Temperatura (degC), Point: (25.641, 468.75)Temperatura (degC), Point: (27.821, 468.75)Temperatura (degC), Point: (29.128, 468.75)Temperatura (degC), Point: (29.99, 468.75)Temperatura (degC), Point: (0, 492.19)Temperatura (degC), Point: (15, 492.19)Temperatura (degC), Point: (25.641, 492.19)Temperatura (degC), Point: (27.821, 492.19)Temperatura (degC), Point: (29.128, 492.19)Temperatura (degC), Point: (29.99, 492.19)
16.000                   3.0000                   1.5000                   2000.0                   1000.0                   0.0000                   20.000                   20.000                   20.000                   20.000                   20.000                   20.035                   20.000                   20.000                   20.000                   20.000                   20.000                   20.035                   20.000                   20.000                   20.000                   20.000                   20.000                   20.035                   20.000                   20.000                   20.000                   20.000                   20.000                   20.035                   20.000                   20.000                   20.000                   20.000                   20.000                   20.035                   20.000                   20.000                   20.000                   20.000                   20.000                   20.035                   20.000                   20.000                   20.000                   20.000                   20.000                   20.035                   20.000                   20.000                   20.000                   20.000                   20.000                   20.034                   20.000                   20.000                   20.000                   20.000                   20.000                   20.030                   20.000                   20.000                   20.000                   20.000                   20.000                   20.019
16.000                   3.0000                   1.5000                   2000.0                   1000.0                   5.0000                   20.883                   23.479                   33.183                   36.630                   38.718                   39.769                   20.871                   23.413                   32.656                   35.400                   37.572                   38.658                   20.898                   23.554                   33.575                   37.074                   39.191                   40.287                   20.899                   23.570                   33.888                   37.502                   39.514                   40.521                   20.888                   23.498                   33.049                   36.141                   38.365                   39.395                   20.887                   23.501                   33.284                   36.632                   38.693                   39.716                   20.867                   23.432                   33.147                   36.541                   38.564                   39.522                   20.758                   23.037                   31.934                   35.067                   36.895                   37.756                   20.588                   22.353                   29.133                   31.475                   32.986                   33.794                   20.469                   21.696                   26.044                   27.480                   28.321                   28.718
16.000                   3.0000                   1.5000                   2000.0                   1000.0                   10.000                   26.094                   31.934                   47.192                   51.497                   53.701                   54.668                   26.016                   31.777                   46.893                   51.241                   53.332                   54.362                   26.203                   32.178                   47.835                   52.249                   54.457                   55.444                   26.158                   32.077                   47.741                   52.126                   54.201                   55.272                   26.138                   32.011                   47.340                   51.717                   53.866                   54.964                   26.099                   31.937                   47.167                   51.811                   54.081                   55.150                   25.855                   31.383                   45.761                   50.391                   52.673                   53.842                   25.345                   30.477                   43.578                   47.590                   49.872                   51.021                   24.105                   28.002                   38.069                   41.327                   43.427                   44.448                   23.225                   26.063                   32.755                   34.741                   35.942                   36.587
16.000                   3.0000                   1.5000                   2000.0                   1000.0                   15.000                   34.385                   43.137                   63.434                   68.431                   70.519                   71.402                   34.262                   42.976                   63.323                   68.435                   70.570                   71.527                   34.602                   43.514                   64.296                   69.475                   71.559                   72.464                   34.439                   43.221                   63.975                   69.326                   71.482                   72.508                   34.523                   43.392                   64.253                   69.622                   71.931                   73.052                   34.301                   42.922                   62.854                   68.272                   70.669                   71.693                   33.475                   41.336                   59.603                   65.002                   67.432                   68.610                   32.490                   39.923                   56.543                   61.084                   63.374                   64.467                   29.480                   34.945                   47.440                   51.250                   53.572                   54.636                   27.707                   32.023                   41.133                   43.653                   45.135                   45.907
16.000                   3.0000                   1.5000                   2000.0                   1000.0                   20.000                   45.148                   55.563                   77.762                   82.918                   84.838                   85.645                   45.031                   55.512                   78.291                   83.606                   85.700                   86.557                   45.355                   55.933                   78.783                   84.045                   85.966                   86.795                   45.176                   55.638                   78.506                   84.099                   86.248                   87.189                   45.395                   55.992                   79.205                   84.860                   87.142                   88.172                   45.051                   55.403                   77.719                   83.458                   85.920                   86.903                   43.242                   52.433                   72.401                   77.947                   80.350                   81.457                   41.639                   50.418                   68.721                   73.306                   75.464                   76.463                   36.297                   42.547                   55.833                   59.697                   61.989                   63.016                   33.648                   38.797                   48.909                   51.624                   53.273                   54.127
16.000                   3.0000                   1.5000                   2000.0                   1000.0                   25.000                   55.860                   66.839                   88.581                   93.543                   95.544                   96.422                   55.745                   66.832                   89.272                   94.368                   96.555                   97.454                   56.021                   67.131                   89.458                   94.464                   96.468                   97.359                   55.868                   66.892                   89.264                   94.594                   96.838                   97.808                   56.220                   67.393                   90.167                   95.570                   97.907                   98.942                   55.748                   66.703                   88.765                   94.241                   96.752                   97.773                   53.155                   62.872                   82.650                   87.885                   90.308                   91.409                   50.818                   60.132                   78.444                   82.855                   85.009                   86.004                   43.332                   49.948                   63.227                   66.924                   69.119                   70.119                   39.719                   45.147                   55.148                   57.719                   59.301                   60.120
16.000                   3.0000                   1.5000                   2000.0                   1000.0                   30.000                   66.494                   76.390                   94.137                   98.377                   100.83                   102.00                   66.377                   76.328                   94.271                   98.520                   101.00                   102.15                   66.557                   76.498                   94.416                   98.659                   101.11                   102.27                   66.491                   76.403                   94.362                   98.674                   101.16                   102.33                   66.973                   76.997                   95.146                   99.488                   102.00                   103.19                   66.364                   76.233                   94.082                   98.420                   100.96                   102.13                   63.287                   72.324                   89.077                   93.312                   95.823                   97.017                   60.043                   68.677                   84.484                   88.393                   90.735                   91.865                   50.693                   57.048                   69.124                   72.320                   74.319                   75.307                   45.983                   50.859                   59.079                   60.999                   62.164                   62.772
16.000                   3.0000                   1.5000                   2000.0                   1000.0                   35.000                   77.169                   86.809                   104.36                   108.73                   111.39                   112.68                   77.008                   86.617                   104.01                   108.29                   110.89                   112.18                   77.186                   86.831                   104.34                   108.72                   111.43                   112.76                   77.272                   86.974                   104.77                   109.20                   111.91                   113.22                   77.736                   87.387                   104.74                   109.06                   111.67                   112.91                   77.046                   86.656                   104.09                   108.45                   111.14                   112.46                   73.320                   82.067                   98.133                   102.24                   104.77                   105.99                   68.966                   77.239                   92.327                   96.178                   98.561                   99.677                   57.918                   64.043                   75.355                   78.247                   80.008                   80.896                   52.279                   56.916                   64.595                   66.305                   67.233                   67.687
16.000                   3.0000                   1.5000                   2000.0                   1000.0                   40.000                   88.032                   97.914                   117.03                   121.93                   124.71                   126.04                   87.836                   97.641                   116.49                   121.21                   123.85                   125.18                   88.085                   98.000                   117.13                   122.05                   124.93                   126.34                   88.353                   98.401                   118.04                   123.07                   125.99                   127.39                   88.713                   98.527                   117.09                   121.83                   124.51                   125.75                   87.937                   97.806                   116.71                   121.60                   124.45                   125.84                   83.443                   92.230                   108.97                   113.38                   115.91                   117.14                   77.823                   86.050                   101.62                   105.70                   108.10                   109.17                   65.149                   71.157                   82.228                   85.035                   86.641                   87.436                   58.744                   63.414                   71.355                   73.140                   74.012                   74.382
16.000                   3.0000                   1.5000                   2000.0                   1000.0                   45.000                   99.212                   109.85                   132.01                   137.70                   140.59                   141.89                   99.016                   109.62                   131.75                   137.24                   139.85                   141.07                   99.421                   110.23                   132.78                   138.56                   141.55                   142.96                   99.895                   110.88                   134.06                   140.05                   143.13                   144.56                   100.07                   110.66                   132.29                   137.79                   140.50                   141.72                   99.169                   109.85                   131.89                   137.70                   140.67                   142.02                   93.768                   103.01                   121.80                   126.91                   129.44                   130.65                   86.699                   95.296                   112.69                   117.30                   119.74                   120.79                   72.454                   78.530                   90.091                   93.115                   94.735                   95.491                   65.495                   70.546                   79.625                   81.796                   82.850                   83.235
16.000                   3.0000                   1.5000                   2000.0                   1000.0                   50.000                   111.26                   122.79                   147.10                   153.20                   156.20                   157.53                   111.07                   122.57                   146.76                   152.63                   155.27                   156.46                   111.66                   123.40                   148.06                   154.23                   157.24                   158.62                   112.30                   124.21                   149.42                   155.78                   158.87                   160.26                   112.33                   123.81                   147.47                   153.36                   156.12                   157.37                   111.23                   122.80                   146.92                   153.22                   156.31                   157.67                   104.73                   114.60                   135.03                   140.56                   143.17                   144.39                   96.113                   105.28                   124.14                   129.07                   131.62                   132.72                   80.184                   86.487                   98.667                   101.91                   103.66                   104.46                   72.834                   78.354                   88.468                   90.941                   92.179                   92.637
16.000                   3.0000                   1.5000                   2000.0                   1000.0                   55.000                   122.77                   134.31                   157.78                   163.59                   166.58                   167.91                   122.60                   134.10                   157.40                   163.03                   165.72                   166.93                   123.33                   135.07                   158.80                   164.65                   167.63                   168.97                   124.11                   135.98                   160.12                   166.10                   169.11                   170.46                   124.06                   135.55                   158.49                   164.14                   166.94                   168.21                   122.72                   134.28                   157.59                   163.56                   166.62                   167.96                   115.38                   125.34                   145.47                   150.83                   153.51                   154.76                   105.21                   114.44                   133.02                   137.82                   140.40                   141.56                   87.875                   94.257                   106.60                   109.91                   111.80                   112.67                   79.959                   85.459                   95.332                   97.724                   98.984                   99.499
16.000                   3.0000                   1.5000                   2000.0                   1000.0                   60.000                   133.62                   144.18                   163.67                   168.47                   171.33                   172.62                   133.47                   144.00                   163.35                   168.07                   170.85                   172.13                   134.30                   145.00                   164.65                   169.48                   172.36                   173.65                   135.18                   145.99                   165.82                   170.67                   173.54                   174.83                   135.12                   145.69                   165.02                   169.76                   172.57                   173.85                   133.51                   144.09                   163.54                   168.35                   171.21                   172.50                   125.63                   135.08                   152.85                   157.42                   160.16                   161.43                   113.91                   122.62                   139.05                   143.26                   145.82                   147.02                   95.483                   101.77                   113.77                   116.98                   119.00                   119.98                   86.798                   91.738                   100.00                   101.90                   103.01                   103.56
16.000                   3.0000                   1.5000                   2000.0                   1000.0                   65.000                   143.43                   153.15                   170.76                   175.22                   178.02                   179.31                   143.32                   153.01                   170.59                   175.07                   177.89                   179.16                   144.15                   153.95                   171.61                   176.06                   178.86                   180.13                   145.13                   155.00                   172.79                   177.27                   180.07                   181.34                   145.10                   154.85                   172.44                   176.89                   179.69                   180.97                   143.22                   152.94                   170.51                   174.93                   177.71                   178.99                   135.18                   144.16                   160.84                   165.17                   167.91                   169.19                   122.04                   130.32                   145.83                   149.88                   152.45                   153.66                   102.82                   109.02                   120.96                   124.19                   126.27                   127.28                   93.293                   97.813                   105.32                   107.08                   108.15                   108.71
16.000                   3.0000                   1.5000                   2000.0                   1000.0                   70.000                   152.82                   161.86                   178.39                   182.73                   185.51                   186.79                   152.74                   161.77                   178.37                   182.78                   185.63                   186.87                   153.55                   162.61                   179.07                   183.35                   186.09                   187.34                   154.60                   163.73                   180.35                   184.69                   187.46                   188.73                   154.65                   163.75                   180.38                   184.73                   187.53                   188.81                   152.51                   161.52                   177.99                   182.29                   185.04                   186.31                   144.43                   153.04                   169.13                   173.39                   176.12                   177.40                   129.95                   137.92                   152.97                   157.00                   159.59                   160.80                   110.05                   116.19                   128.15                   131.44                   133.56                   134.58                   99.692                   103.89                   110.97                   112.68                   113.75                   114.31
16.000                   3.0000                   1.5000                   2000.0                   1000.0                   75.000                   161.79                   170.49                   186.64                   190.96                   193.76                   195.04                   161.75                   170.46                   186.67                   191.05                   193.90                   195.15                   162.48                   171.14                   187.09                   191.31                   194.02                   195.26                   163.63                   172.39                   188.58                   192.90                   195.68                   196.96                   163.80                   172.61                   189.01                   193.40                   196.23                   197.53                   161.39                   170.06                   186.15                   190.44                   193.22                   194.50                   153.35                   161.80                   177.75                   182.03                   184.79                   186.07                   137.71                   145.56                   160.56                   164.63                   167.25                   168.47                   117.15                   123.29                   135.34                   138.67                   140.83                   141.87                   106.06                   110.11                   117.02                   118.73                   119.80                   120.36