% Model:              batchmodel_COIL_N_16_COIL_kr_3_COIL_kh_1.5_FUNZ_freq_10000_FUNZ_I_eff_1000.mph
% Version:            COMSOL 6.0.0.318
% Date:               Feb 8 2022, 23:41
% Table:              Tabella 1 - GRIGLIA_T
% COIL_N                 COIL_kr                  COIL_kh                  FUNZ_freq                FUNZ_I_eff               Time (s)                 Temperatura (degC), Point: (0, 0)Temperatura (degC), Point: (15, 0)Temperatura (degC), Point: (28.051, 0)Temperatura (degC), Point: (29.025, 0)Temperatura (degC), Point: (29.61, 0)Temperatura (degC), Point: (29.99, 0)Temperatura (degC), Point: (0, 62.5)Temperatura (degC), Point: (15, 62.5)Temperatura (degC), Point: (28.051, 62.5)Temperatura (degC), Point: (29.025, 62.5)Temperatura (degC), Point: (29.61, 62.5)Temperatura (degC), Point: (29.99, 62.5)Temperatura (degC), Point: (0, 125)Temperatura (degC), Point: (15, 125)Temperatura (degC), Point: (28.051, 125)Temperatura (degC), Point: (29.025, 125)Temperatura (degC), Point: (29.61, 125)Temperatura (degC), Point: (29.99, 125)Temperatura (degC), Point: (0, 187.5)Temperatura (degC), Point: (15, 187.5)Temperatura (degC), Point: (28.051, 187.5)Temperatura (degC), Point: (29.025, 187.5)Temperatura (degC), Point: (29.61, 187.5)Temperatura (degC), Point: (29.99, 187.5)Temperatura (degC), Point: (0, 250)Temperatura (degC), Point: (15, 250)Temperatura (degC), Point: (28.051, 250)Temperatura (degC), Point: (29.025, 250)Temperatura (degC), Point: (29.61, 250)Temperatura (degC), Point: (29.99, 250)Temperatura (degC), Point: (0, 312.5)Temperatura (degC), Point: (15, 312.5)Temperatura (degC), Point: (28.051, 312.5)Temperatura (degC), Point: (29.025, 312.5)Temperatura (degC), Point: (29.61, 312.5)Temperatura (degC), Point: (29.99, 312.5)Temperatura (degC), Point: (0, 375)Temperatura (degC), Point: (15, 375)Temperatura (degC), Point: (28.051, 375)Temperatura (degC), Point: (29.025, 375)Temperatura (degC), Point: (29.61, 375)Temperatura (degC), Point: (29.99, 375)Temperatura (degC), Point: (0, 437.5)Temperatura (degC), Point: (15, 437.5)Temperatura (degC), Point: (28.051, 437.5)Temperatura (degC), Point: (29.025, 437.5)Temperatura (degC), Point: (29.61, 437.5)Temperatura (degC), Point: (29.99, 437.5)Temperatura (degC), Point: (0, 468.75)Temperatura (degC), Point: (15, 468.75)Temperatura (degC), Point: (28.051, 468.75)Temperatura (degC), Point: (29.025, 468.75)Temperatura (degC), Point: (29.61, 468.75)Temperatura (degC), Point: (29.99, 468.75)Temperatura (degC), Point: (0, 492.19)Temperatura (degC), Point: (15, 492.19)Temperatura (degC), Point: (28.051, 492.19)Temperatura (degC), Point: (29.025, 492.19)Temperatura (degC), Point: (29.61, 492.19)Temperatura (degC), Point: (29.99, 492.19)
16.000                   3.0000                   1.5000                   10000                    1000.0                   0.0000                   20.000                   20.000                   20.000                   20.000                   20.007                   20.138                   20.000                   20.000                   20.000                   20.000                   20.007                   20.138                   20.000                   20.000                   20.000                   20.000                   20.007                   20.138                   20.000                   20.000                   20.000                   20.000                   20.007                   20.138                   20.000                   20.000                   20.000                   20.000                   20.007                   20.138                   20.000                   20.000                   20.000                   20.000                   20.007                   20.138                   20.000                   20.000                   20.000                   20.000                   20.007                   20.138                   20.000                   20.000                   20.000                   20.000                   20.007                   20.137                   20.000                   20.000                   20.000                   20.000                   20.006                   20.131                   20.000                   20.000                   20.000                   20.000                   20.004                   20.107
16.000                   3.0000                   1.5000                   10000                    1000.0                   5.0000                   21.929                   28.847                   63.489                   67.331                   69.592                   70.734                   21.884                   28.710                   63.926                   67.948                   70.445                   71.552                   21.950                   29.078                   65.822                   69.798                   72.228                   73.399                   22.034                   29.422                   65.485                   69.368                   71.793                   72.915                   21.978                   29.232                   65.977                   70.013                   72.411                   73.623                   21.941                   29.033                   64.729                   68.530                   70.885                   72.049                   21.990                   29.158                   64.155                   67.973                   70.327                   71.499                   21.973                   29.205                   64.819                   68.538                   70.877                   72.033                   21.450                   26.578                   53.774                   57.281                   59.520                   60.652                   21.446                   25.970                   47.496                   50.146                   51.815                   52.680
16.000                   3.0000                   1.5000                   10000                    1000.0                   10.000                   33.355                   45.984                   83.649                   87.623                   90.088                   91.283                   33.297                   46.005                   84.488                   88.546                   91.073                   92.306                   33.499                   46.345                   84.872                   88.872                   91.336                   92.513                   33.775                   46.814                   85.506                   89.549                   92.070                   93.286                   33.696                   46.814                   86.022                   90.084                   92.605                   93.823                   33.467                   46.375                   85.531                   89.643                   92.179                   93.407                   33.689                   46.665                   85.635                   89.778                   92.335                   93.575                   33.202                   45.829                   83.430                   87.416                   89.877                   91.071                   30.621                   41.012                   74.093                   77.756                   80.039                   81.164                   29.589                   38.486                   64.698                   67.451                   69.160                   70.030
16.000                   3.0000                   1.5000                   10000                    1000.0                   15.000                   49.453                   64.296                   104.03                   108.05                   110.48                   111.66                   49.713                   64.970                   107.22                   111.40                   113.94                   115.15                   49.727                   64.813                   105.98                   110.12                   112.52                   113.63                   50.069                   65.312                   106.36                   110.48                   113.01                   114.20                   50.182                   65.715                   107.91                   112.02                   114.52                   115.73                   49.842                   65.203                   107.72                   111.97                   114.54                   115.78                   50.136                   65.482                   107.21                   111.47                   114.09                   115.34                   48.646                   63.366                   103.54                   107.72                   110.28                   111.48                   44.185                   56.842                   92.325                   96.068                   98.393                   99.527                   41.840                   52.721                   80.996                   83.799                   85.530                   86.404
16.000                   3.0000                   1.5000                   10000                    1000.0                   20.000                   67.256                   83.311                   125.08                   129.30                   131.81                   133.02                   68.042                   84.837                   130.00                   134.32                   136.95                   138.17                   67.668                   84.010                   127.26                   131.49                   133.94                   135.04                   67.996                   84.436                   127.17                   131.35                   133.90                   135.08                   68.453                   85.438                   130.14                   134.32                   136.85                   138.07                   68.037                   84.834                   129.80                   134.18                   136.83                   138.08                   68.349                   85.044                   128.63                   132.99                   135.66                   136.92                   65.616                   81.568                   124.16                   128.55                   131.21                   132.46                   59.350                   73.203                   110.17                   114.00                   116.38                   117.53                   55.706                   67.652                   97.114                   99.963                   101.72                   102.60
16.000                   3.0000                   1.5000                   10000                    1000.0                   25.000                   86.374                   103.34                   147.80                   152.36                   155.07                   156.36                   87.666                   105.43                   152.77                   157.30                   160.06                   161.34                   86.951                   104.27                   150.29                   154.81                   157.43                   158.63                   87.149                   104.46                   149.49                   153.93                   156.65                   157.91                   88.067                   106.09                   153.70                   158.22                   160.96                   162.24                   87.475                   105.17                   152.12                   156.70                   159.48                   160.78                   87.862                   105.51                   151.38                   155.98                   158.81                   160.12                   83.776                   100.63                   145.51                   150.11                   152.88                   154.18                   75.663                   90.269                   128.79                   132.78                   135.26                   136.44                   70.725                   83.235                   113.48                   116.38                   118.17                   119.06
16.000                   3.0000                   1.5000                   10000                    1000.0                   30.000                   106.11                   123.93                   171.00                   175.89                   178.80                   180.15                   107.83                   126.45                   175.76                   180.52                   183.43                   184.77                   106.93                   125.18                   174.01                   178.83                   181.65                   182.96                   106.93                   125.06                   172.45                   177.17                   180.09                   181.43                   108.32                   127.28                   177.65                   182.52                   185.49                   186.84                   107.49                   125.97                   174.85                   179.62                   182.55                   183.90                   107.95                   126.45                   174.59                   179.45                   182.43                   183.79                   102.48                   120.16                   167.20                   172.00                   174.89                   176.23                   92.483                   107.74                   147.79                   151.94                   154.51                   155.72                   86.231                   99.171                   130.10                   133.06                   134.88                   135.78
16.000                   3.0000                   1.5000                   10000                    1000.0                   35.000                   126.73                   145.36                   194.73                   199.87                   202.95                   204.35                   128.75                   148.09                   199.23                   204.22                   207.29                   208.68                   127.94                   147.12                   198.66                   203.79                   206.80                   208.21                   127.63                   146.57                   196.31                   201.31                   204.40                   205.80                   129.49                   149.31                   202.07                   207.24                   210.40                   211.80                   128.33                   147.54                   198.27                   203.28                   206.35                   207.74                   128.85                   148.14                   198.39                   203.47                   206.59                   208.00                   121.95                   140.40                   189.39                   194.37                   197.38                   198.77                   110.02                   125.83                   167.33                   171.62                   174.28                   175.52                   102.41                   115.64                   147.18                   150.20                   152.05                   152.96
16.000                   3.0000                   1.5000                   10000                    1000.0                   40.000                   147.35                   166.79                   218.46                   223.86                   227.10                   228.55                   149.67                   169.73                   222.69                   227.93                   231.14                   232.59                   148.96                   169.06                   223.31                   228.74                   231.96                   233.46                   148.33                   168.09                   220.17                   225.45                   228.71                   230.18                   150.66                   171.33                   226.49                   231.96                   235.30                   236.77                   149.17                   169.11                   221.70                   226.93                   230.15                   231.58                   149.74                   169.82                   222.19                   227.49                   230.76                   232.21                   141.41                   160.63                   211.58                   216.74                   219.87                   221.30                   127.55                   143.92                   186.87                   191.30                   194.05                   195.32                   118.60                   132.11                   164.26                   167.33                   169.22                   170.14
16.000                   3.0000                   1.5000                   10000                    1000.0                   45.000                   168.14                   188.36                   242.23                   247.86                   251.26                   252.74                   170.73                   191.52                   246.31                   251.78                   255.14                   256.63                   170.16                   191.17                   248.01                   253.72                   257.12                   258.71                   169.22                   189.77                   244.16                   249.70                   253.12                   254.64                   171.94                   193.42                   250.81                   256.56                   260.08                   261.59                   170.17                   190.82                   245.32                   250.76                   254.12                   255.60                   170.74                   191.56                   245.96                   251.48                   254.88                   256.37                   160.98                   180.92                   233.76                   239.10                   242.34                   243.81                   145.22                   162.11                   206.44                   211.02                   213.86                   215.15                   134.93                   148.72                   181.47                   184.60                   186.52                   187.45
16.000                   3.0000                   1.5000                   10000                    1000.0                   50.000                   189.48                   210.39                   266.11                   271.91                   275.40                   276.91                   192.29                   213.75                   270.46                   276.13                   279.61                   281.14                   191.99                   213.81                   272.84                   278.78                   282.33                   283.97                   190.70                   212.02                   268.57                   274.31                   277.84                   279.39                   193.62                   215.75                   274.85                   280.77                   284.41                   285.95                   191.67                   213.00                   269.52                   275.19                   278.68                   280.18                   192.05                   213.51                   269.64                   275.36                   278.88                   280.40                   180.88                   201.40                   255.89                   261.41                   264.74                   266.23                   163.29                   180.60                   226.15                   230.86                   233.78                   235.10                   151.78                   165.79                   199.10                   202.28                   204.24                   205.18
16.000                   3.0000                   1.5000                   10000                    1000.0                   55.000                   210.82                   232.43                   290.00                   295.96                   299.54                   301.09                   213.84                   235.99                   294.61                   300.49                   304.08                   305.64                   213.83                   236.45                   297.68                   303.84                   307.54                   309.24                   212.19                   234.26                   292.97                   298.91                   302.55                   304.13                   215.30                   238.08                   298.89                   304.98                   308.73                   310.30                   213.16                   235.19                   293.73                   299.61                   303.23                   304.77                   213.37                   235.45                   293.32                   299.23                   302.88                   304.42                   200.77                   221.88                   278.02                   283.72                   287.14                   288.65                   181.37                   199.10                   245.85                   250.70                   253.70                   255.04                   168.62                   182.85                   216.73                   219.97                   221.97                   222.91
16.000                   3.0000                   1.5000                   10000                    1000.0                   60.000                   232.17                   254.47                   313.89                   320.02                   323.69                   325.27                   235.41                   258.25                   318.81                   324.89                   328.60                   330.19                   235.66                   259.08                   322.47                   328.85                   332.69                   334.44                   233.70                   256.52                   317.37                   323.51                   327.26                   328.87                   236.95                   260.39                   322.87                   329.14                   333.01                   334.60                   234.68                   257.39                   317.95                   324.05                   327.81                   329.38                   234.67                   257.38                   317.00                   323.11                   326.87                   328.45                   220.63                   242.32                   300.08                   305.94                   309.45                   310.99                   199.44                   217.59                   265.57                   270.55                   273.63                   274.99                   185.49                   199.95                   234.40                   237.70                   239.74                   240.69
16.000                   3.0000                   1.5000                   10000                    1000.0                   65.000                   253.62                   276.58                   337.82                   344.14                   347.92                   349.52                   257.11                   280.66                   343.32                   349.61                   353.44                   355.05                   257.50                   281.61                   346.91                   353.50                   357.47                   359.24                   255.32                   278.85                   341.73                   348.05                   351.90                   353.53                   258.48                   282.51                   346.55                   352.97                   356.92                   358.53                   256.28                   279.70                   342.33                   348.65                   352.54                   354.13                   255.85                   279.19                   340.67                   346.98                   350.87                   352.46                   240.25                   262.44                   321.60                   327.61                   331.20                   332.75                   217.55                   236.12                   285.37                   290.50                   293.67                   295.05                   202.59                   217.30                   252.38                   255.75                   257.82                   258.78
16.000                   3.0000                   1.5000                   10000                    1000.0                   70.000                   275.06                   298.68                   361.75                   368.26                   372.15                   373.78                   278.80                   303.06                   367.83                   374.33                   378.29                   379.92                   279.33                   304.15                   371.35                   378.15                   382.24                   384.03                   276.95                   301.19                   366.09                   372.60                   376.55                   378.19                   280.01                   304.64                   370.22                   376.79                   380.83                   382.45                   277.89                   302.00                   366.70                   373.25                   377.26                   378.88                   277.03                   301.01                   364.33                   370.85                   374.86                   376.48                   259.86                   282.55                   343.11                   349.28                   352.95                   354.51                   235.66                   254.65                   305.17                   310.44                   313.71                   315.11                   219.68                   234.64                   270.36                   273.79                   275.90                   276.87
16.000                   3.0000                   1.5000                   10000                    1000.0                   75.000                   296.51                   320.79                   385.69                   392.38                   396.38                   398.03                   300.50                   325.47                   392.35                   399.06                   403.13                   404.79                   301.17                   326.68                   395.79                   402.79                   407.01                   408.83                   298.57                   323.53                   390.45                   397.14                   401.20                   402.86                   301.54                   326.77                   393.89                   400.61                   404.74                   406.38                   299.49                   324.31                   391.07                   397.85                   401.99                   403.63                   298.21                   322.82                   388.00                   394.72                   398.86                   400.50                   279.48                   302.67                   364.63                   370.94                   374.70                   376.27                   253.76                   273.18                   324.97                   330.39                   333.75                   335.17                   236.78                   251.99                   288.34                   291.84                   293.99                   294.96