% Model:              batchmodel_COIL_N_16_COIL_kr_3_COIL_kh_1_FUNZ_freq_10000_FUNZ_I_eff_2500.mph
% Version:            COMSOL 6.0.0.318
% Date:               Feb 8 2022, 23:46
% Table:              Tabella 1 - GRIGLIA_T
% COIL_N                 COIL_kr                  COIL_kh                  FUNZ_freq                FUNZ_I_eff               Time (s)                 Temperatura (degC), Point: (0, 0)Temperatura (degC), Point: (15, 0)Temperatura (degC), Point: (28.051, 0)Temperatura (degC), Point: (29.025, 0)Temperatura (degC), Point: (29.61, 0)Temperatura (degC), Point: (29.99, 0)Temperatura (degC), Point: (0, 62.5)Temperatura (degC), Point: (15, 62.5)Temperatura (degC), Point: (28.051, 62.5)Temperatura (degC), Point: (29.025, 62.5)Temperatura (degC), Point: (29.61, 62.5)Temperatura (degC), Point: (29.99, 62.5)Temperatura (degC), Point: (0, 125)Temperatura (degC), Point: (15, 125)Temperatura (degC), Point: (28.051, 125)Temperatura (degC), Point: (29.025, 125)Temperatura (degC), Point: (29.61, 125)Temperatura (degC), Point: (29.99, 125)Temperatura (degC), Point: (0, 187.5)Temperatura (degC), Point: (15, 187.5)Temperatura (degC), Point: (28.051, 187.5)Temperatura (degC), Point: (29.025, 187.5)Temperatura (degC), Point: (29.61, 187.5)Temperatura (degC), Point: (29.99, 187.5)Temperatura (degC), Point: (0, 250)Temperatura (degC), Point: (15, 250)Temperatura (degC), Point: (28.051, 250)Temperatura (degC), Point: (29.025, 250)Temperatura (degC), Point: (29.61, 250)Temperatura (degC), Point: (29.99, 250)Temperatura (degC), Point: (0, 312.5)Temperatura (degC), Point: (15, 312.5)Temperatura (degC), Point: (28.051, 312.5)Temperatura (degC), Point: (29.025, 312.5)Temperatura (degC), Point: (29.61, 312.5)Temperatura (degC), Point: (29.99, 312.5)Temperatura (degC), Point: (0, 375)Temperatura (degC), Point: (15, 375)Temperatura (degC), Point: (28.051, 375)Temperatura (degC), Point: (29.025, 375)Temperatura (degC), Point: (29.61, 375)Temperatura (degC), Point: (29.99, 375)Temperatura (degC), Point: (0, 437.5)Temperatura (degC), Point: (15, 437.5)Temperatura (degC), Point: (28.051, 437.5)Temperatura (degC), Point: (29.025, 437.5)Temperatura (degC), Point: (29.61, 437.5)Temperatura (degC), Point: (29.99, 437.5)Temperatura (degC), Point: (0, 468.75)Temperatura (degC), Point: (15, 468.75)Temperatura (degC), Point: (28.051, 468.75)Temperatura (degC), Point: (29.025, 468.75)Temperatura (degC), Point: (29.61, 468.75)Temperatura (degC), Point: (29.99, 468.75)Temperatura (degC), Point: (0, 492.19)Temperatura (degC), Point: (15, 492.19)Temperatura (degC), Point: (28.051, 492.19)Temperatura (degC), Point: (29.025, 492.19)Temperatura (degC), Point: (29.61, 492.19)Temperatura (degC), Point: (29.99, 492.19)
16.000                   3.0000                   1.0000                   10000                    2500.0                   0.0000                   20.000                   20.000                   20.000                   20.000                   20.076                   20.430                   20.000                   20.000                   20.000                   20.000                   20.076                   20.430                   20.000                   20.000                   20.000                   20.000                   20.077                   20.430                   20.000                   20.000                   20.000                   20.000                   20.077                   20.430                   20.000                   20.000                   20.000                   20.000                   20.077                   20.431                   20.000                   20.000                   20.000                   20.000                   20.077                   20.431                   20.000                   20.000                   20.000                   20.000                   20.077                   20.431                   20.000                   20.000                   20.000                   20.000                   20.075                   20.427                   20.000                   20.000                   20.000                   20.000                   20.069                   20.414                   20.000                   20.000                   20.000                   20.000                   20.058                   20.386
16.000                   3.0000                   1.0000                   10000                    2500.0                   5.0000                   26.337                   50.558                   198.45                   220.06                   233.06                   237.76                   26.324                   50.713                   196.22                   216.29                   228.43                   232.94                   26.277                   50.479                   195.27                   215.55                   228.41                   233.08                   26.345                   50.948                   201.05                   222.31                   234.79                   239.35                   26.435                   51.586                   209.36                   232.64                   246.38                   251.22                   26.373                   51.250                   207.27                   230.22                   243.97                   248.91                   26.301                   50.809                   202.12                   223.75                   236.61                   241.12                   26.164                   50.070                   194.36                   214.58                   226.67                   231.07                   25.835                   48.183                   182.10                   200.62                   211.76                   216.11                   31.804                   54.352                   174.30                   190.86                   201.18                   205.26
16.000                   3.0000                   1.0000                   10000                    2500.0                   10.000                   67.596                   126.52                   337.45                   364.68                   381.07                   386.43                   67.454                   125.76                   328.22                   352.89                   367.53                   372.56                   67.252                   125.67                   332.21                   357.68                   372.64                   377.76                   67.712                   126.67                   332.86                   358.54                   374.35                   379.72                   68.548                   129.01                   343.14                   369.41                   385.13                   390.61                   68.428                   129.07                   345.61                   372.45                   388.35                   393.54                   67.965                   128.19                   344.79                   371.35                   387.33                   393.02                   66.312                   124.03                   327.96                   353.08                   368.25                   373.51                   64.168                   117.92                   304.14                   326.60                   340.01                   344.85                   80.338                   127.80                   282.13                   299.73                   310.29                   314.21
16.000                   3.0000                   1.0000                   10000                    2500.0                   15.000                   137.77                   213.75                   465.21                   497.38                   516.23                   522.04                   137.37                   212.62                   460.67                   492.71                   511.51                   517.31                   136.79                   211.74                   458.69                   490.48                   509.19                   514.96                   137.39                   212.25                   457.51                   489.31                   508.06                   513.83                   139.00                   215.00                   463.87                   495.90                   514.65                   520.39                   139.32                   216.09                   468.01                   500.35                   519.36                   525.17                   138.99                   216.39                   471.76                   504.34                   523.33                   529.13                   134.44                   208.44                   451.34                   482.33                   500.57                   506.22                   129.40                   197.75                   417.41                   445.04                   461.56                   466.82                   143.66                   202.54                   378.49                   399.02                   411.51                   415.71
16.000                   3.0000                   1.0000                   10000                    2500.0                   20.000                   216.37                   302.48                   591.26                   628.42                   649.26                   655.66                   215.96                   301.79                   589.02                   626.43                   647.39                   653.63                   214.86                   300.04                   583.53                   620.21                   641.13                   647.38                   215.39                   300.37                   583.31                   619.77                   640.32                   646.44                   217.19                   302.57                   585.13                   621.41                   641.58                   647.58                   218.14                   304.44                   587.43                   623.00                   643.30                   649.53                   218.29                   305.51                   595.33                   633.36                   654.83                   660.89                   210.98                   294.81                   572.89                   609.01                   629.91                   636.11                   202.47                   279.70                   534.16                   567.07                   586.21                   591.96                   210.86                   277.21                   471.21                   494.24                   508.17                   512.40
16.000                   3.0000                   1.0000                   10000                    2500.0                   25.000                   295.38                   389.72                   713.82                   760.35                   787.24                   794.70                   295.11                   389.51                   715.81                   764.01                   791.38                   798.77                   293.70                   387.53                   710.26                   757.67                   784.71                   791.98                   294.09                   387.75                   710.36                   757.30                   784.21                   791.62                   295.63                   389.32                   710.50                   756.59                   782.97                   790.34                   297.11                   391.59                   715.73                   763.42                   790.67                   798.09                   297.59                   392.66                   719.66                   768.15                   795.98                   803.57                   288.31                   380.49                   696.90                   742.36                   768.32                   775.39                   276.10                   361.01                   650.22                   690.05                   712.77                   719.13                   278.32                   350.83                   570.29                   596.54                   611.92                   616.72
16.000                   3.0000                   1.0000                   10000                    2500.0                   30.000                   370.29                   469.09                   819.12                   871.65                   899.53                   906.93                   370.19                   469.33                   825.07                   880.99                   909.03                   916.10                   368.76                   467.38                   816.11                   871.29                   899.60                   906.67                   369.00                   467.44                   813.38                   866.21                   893.54                   900.75                   370.11                   468.19                   807.14                   855.58                   881.57                   888.76                   372.12                   471.38                   822.11                   876.28                   903.92                   910.97                   372.59                   472.01                   823.11                   877.68                   906.24                   913.59                   362.22                   459.31                   798.32                   850.36                   878.52                   885.79                   346.91                   436.89                   743.44                   789.42                   814.91                   821.79                   346.51                   423.03                   655.61                   683.45                   699.76                   704.76
16.000                   3.0000                   1.0000                   10000                    2500.0                   35.000                   441.22                   542.29                   931.98                   988.55                   1014.8                   1020.3                   441.31                   542.89                   936.05                   992.26                   1018.4                   1023.9                   440.01                   541.14                   927.62                   983.23                   1009.5                   1015.1                   440.10                   541.00                   926.78                   983.06                   1009.5                   1015.1                   440.68                   540.84                   923.05                   980.71                   1007.8                   1013.5                   443.29                   545.21                   935.52                   990.73                   1016.3                   1021.7                   443.59                   545.25                   934.88                   990.13                   1015.9                   1021.4                   432.64                   532.38                   909.17                   965.64                   992.67                   998.64                   414.89                   507.54                   832.07                   883.39                   909.87                   916.19                   410.63                   490.62                   724.67                   753.41                   770.25                   774.86
16.000                   3.0000                   1.0000                   10000                    2500.0                   40.000                   505.21                   606.05                   1019.8                   1061.4                   1074.8                   1076.3                   505.46                   606.79                   1024.2                   1065.6                   1078.5                   1079.8                   504.36                   605.18                   1004.2                   1047.1                   1062.0                   1064.0                   504.33                   604.96                   975.77                   1012.9                   1028.7                   1031.5                   504.39                   604.34                   971.66                   1009.1                   1025.5                   1028.5                   507.63                   608.74                   962.08                   996.20                   1011.9                   1015.0                   507.69                   608.78                   982.12                   1019.3                   1034.6                   1037.3                   496.42                   596.60                   1007.1                   1052.4                   1067.8                   1069.8                   476.60                   569.63                   910.78                   957.72                   980.75                   985.90                   467.08                   548.03                   775.94                   806.28                   823.38                   827.82
16.000                   3.0000                   1.0000                   10000                    2500.0                   45.000                   562.53                   660.32                   1075.6                   1101.3                   1107.4                   1107.1                   562.87                   660.95                   1073.2                   1098.9                   1105.2                   1104.9                   561.94                   659.27                   1067.8                   1095.2                   1102.0                   1101.8                   561.84                   658.49                   1005.7                   1032.8                   1042.7                   1043.9                   561.54                   657.41                   982.18                   1007.3                   1018.2                   1020.1                   564.99                   660.52                   964.47                   987.99                   999.11                   1001.3                   564.96                   661.63                   1005.7                   1032.3                   1042.0                   1043.2                   553.97                   652.00                   1066.6                   1094.4                   1101.3                   1101.1                   532.25                   623.10                   965.28                   1005.0                   1023.2                   1026.9                   518.88                   597.27                   824.21                   854.33                   870.68                   874.74
16.000                   3.0000                   1.0000                   10000                    2500.0                   50.000                   610.83                   703.53                   1084.8                   1103.5                   1107.6                   1106.8                   611.17                   704.11                   1082.3                   1101.3                   1105.6                   1104.8                   610.35                   702.55                   1081.5                   1101.0                   1105.4                   1104.6                   610.21                   701.14                   1036.4                   1058.5                   1065.3                   1065.4                   609.73                   699.37                   1003.0                   1023.9                   1032.0                   1033.0                   612.89                   701.17                   980.04                   998.84                   1007.4                   1008.8                   612.93                   703.40                   1028.8                   1050.6                   1057.5                   1057.8                   603.10                   696.60                   1072.3                   1092.5                   1097.4                   1096.8                   580.74                   668.07                   1019.5                   1051.4                   1062.3                   1063.4                   564.62                   638.59                   863.83                   891.53                   906.34                   909.86
16.000                   3.0000                   1.0000                   10000                    2500.0                   55.000                   651.89                   739.33                   1086.0                   1100.8                   1103.8                   1102.8                   652.17                   739.82                   1084.2                   1099.2                   1102.4                   1101.4                   651.47                   738.28                   1083.5                   1098.8                   1102.1                   1101.1                   651.30                   736.52                   1056.4                   1074.1                   1078.8                   1078.3                   650.72                   733.98                   1023.8                   1041.8                   1047.9                   1048.1                   653.44                   734.92                   999.53                   1015.3                   1021.8                   1022.5                   653.59                   737.98                   1045.9                   1063.7                   1068.7                   1068.4                   645.18                   733.07                   1073.9                   1090.4                   1094.2                   1093.4                   623.19                   706.72                   1056.1                   1079.9                   1086.1                   1085.8                   605.17                   674.41                   897.31                   922.40                   935.61                   938.64
16.000                   3.0000                   1.0000                   10000                    2500.0                   60.000                   685.86                   771.83                   1083.9                   1096.1                   1098.4                   1097.3                   686.13                   771.99                   1082.4                   1094.8                   1097.2                   1096.1                   685.55                   770.48                   1081.3                   1093.9                   1096.4                   1095.3                   685.35                   768.50                   1066.2                   1080.3                   1083.6                   1082.8                   684.73                   765.22                   1040.8                   1055.9                   1060.4                   1060.0                   686.98                   765.78                   1020.8                   1034.6                   1039.3                   1039.3                   687.21                   769.53                   1056.4                   1070.7                   1074.4                   1073.7                   680.24                   765.19                   1073.2                   1086.9                   1089.9                   1089.0                   659.63                   739.64                   1073.2                   1090.6                   1094.6                   1093.8                   640.50                   704.87                   925.35                   947.80                   959.54                   962.11
16.000                   3.0000                   1.0000                   10000                    2500.0                   65.000                   713.83                   804.38                   1081.4                   1091.4                   1093.2                   1092.0                   714.04                   804.31                   1080.3                   1090.4                   1092.2                   1091.0                   713.56                   802.93                   1079.0                   1089.3                   1091.2                   1090.0                   713.34                   800.97                   1071.7                   1082.8                   1085.1                   1084.0                   712.71                   797.41                   1053.9                   1066.2                   1069.3                   1068.5                   714.57                   797.96                   1040.2                   1051.9                   1055.2                   1054.6                   714.84                   801.82                   1064.0                   1075.3                   1077.8                   1076.9                   709.13                   797.51                   1072.6                   1083.8                   1086.0                   1085.0                   690.83                   772.07                   1081.0                   1094.1                   1096.7                   1095.7                   671.62                   732.20                   948.77                   968.50                   978.70                   980.81
16.000                   3.0000                   1.0000                   10000                    2500.0                   70.000                   735.64                   837.20                   1078.8                   1087.1                   1088.3                   1087.0                   735.70                   837.04                   1077.9                   1086.3                   1087.5                   1086.3                   735.29                   835.88                   1076.9                   1085.4                   1086.7                   1085.4                   735.08                   834.20                   1073.1                   1082.0                   1083.5                   1082.3                   734.48                   830.87                   1063.1                   1072.6                   1074.5                   1073.5                   736.02                   831.77                   1057.4                   1066.9                   1069.0                   1068.0                   736.32                   835.12                   1068.8                   1077.7                   1079.3                   1078.2                   731.67                   830.36                   1072.2                   1081.2                   1082.8                   1081.7                   716.61                   804.34                   1079.9                   1090.7                   1092.7                   1091.6                   698.44                   756.44                   967.41                   984.36                   992.94                   994.57
16.000                   3.0000                   1.0000                   10000                    2500.0                   75.000                   758.00                   867.27                   1079.1                   1085.9                   1086.6                   1085.3                   758.07                   867.10                   1078.5                   1085.3                   1086.1                   1084.7                   757.69                   866.19                   1077.8                   1084.6                   1085.4                   1084.1                   757.44                   864.88                   1076.5                   1083.5                   1084.4                   1083.1                   756.79                   862.15                   1071.4                   1078.8                   1079.9                   1078.7                   758.41                   863.40                   1069.8                   1077.4                   1078.5                   1077.3                   758.73                   865.98                   1074.5                   1081.4                   1082.4                   1081.1                   754.00                   860.82                   1074.5                   1081.8                   1082.8                   1081.5                   738.79                   835.46                   1081.2                   1089.8                   1091.1                   1089.9                   720.15                   782.75                   986.85                   1001.1                   1007.9                   1008.9