% Model:              batchmodel_COIL_N_16_COIL_kr_3_COIL_kh_2_FUNZ_freq_10000_FUNZ_I_eff_4000.mph
% Version:            COMSOL 6.0.0.318
% Date:               Feb 9 2022, 00:39
% Table:              Tabella 1 - GRIGLIA_T
% COIL_N                 COIL_kr                  COIL_kh                  FUNZ_freq                FUNZ_I_eff               Time (s)                 Temperatura (degC), Point: (0, 0)Temperatura (degC), Point: (15, 0)Temperatura (degC), Point: (28.051, 0)Temperatura (degC), Point: (29.025, 0)Temperatura (degC), Point: (29.61, 0)Temperatura (degC), Point: (29.99, 0)Temperatura (degC), Point: (0, 62.5)Temperatura (degC), Point: (15, 62.5)Temperatura (degC), Point: (28.051, 62.5)Temperatura (degC), Point: (29.025, 62.5)Temperatura (degC), Point: (29.61, 62.5)Temperatura (degC), Point: (29.99, 62.5)Temperatura (degC), Point: (0, 125)Temperatura (degC), Point: (15, 125)Temperatura (degC), Point: (28.051, 125)Temperatura (degC), Point: (29.025, 125)Temperatura (degC), Point: (29.61, 125)Temperatura (degC), Point: (29.99, 125)Temperatura (degC), Point: (0, 187.5)Temperatura (degC), Point: (15, 187.5)Temperatura (degC), Point: (28.051, 187.5)Temperatura (degC), Point: (29.025, 187.5)Temperatura (degC), Point: (29.61, 187.5)Temperatura (degC), Point: (29.99, 187.5)Temperatura (degC), Point: (0, 250)Temperatura (degC), Point: (15, 250)Temperatura (degC), Point: (28.051, 250)Temperatura (degC), Point: (29.025, 250)Temperatura (degC), Point: (29.61, 250)Temperatura (degC), Point: (29.99, 250)Temperatura (degC), Point: (0, 312.5)Temperatura (degC), Point: (15, 312.5)Temperatura (degC), Point: (28.051, 312.5)Temperatura (degC), Point: (29.025, 312.5)Temperatura (degC), Point: (29.61, 312.5)Temperatura (degC), Point: (29.99, 312.5)Temperatura (degC), Point: (0, 375)Temperatura (degC), Point: (15, 375)Temperatura (degC), Point: (28.051, 375)Temperatura (degC), Point: (29.025, 375)Temperatura (degC), Point: (29.61, 375)Temperatura (degC), Point: (29.99, 375)Temperatura (degC), Point: (0, 437.5)Temperatura (degC), Point: (15, 437.5)Temperatura (degC), Point: (28.051, 437.5)Temperatura (degC), Point: (29.025, 437.5)Temperatura (degC), Point: (29.61, 437.5)Temperatura (degC), Point: (29.99, 437.5)Temperatura (degC), Point: (0, 468.75)Temperatura (degC), Point: (15, 468.75)Temperatura (degC), Point: (28.051, 468.75)Temperatura (degC), Point: (29.025, 468.75)Temperatura (degC), Point: (29.61, 468.75)Temperatura (degC), Point: (29.99, 468.75)Temperatura (degC), Point: (0, 492.19)Temperatura (degC), Point: (15, 492.19)Temperatura (degC), Point: (28.051, 492.19)Temperatura (degC), Point: (29.025, 492.19)Temperatura (degC), Point: (29.61, 492.19)Temperatura (degC), Point: (29.99, 492.19)
16.000                   3.0000                   2.0000                   10000                    4000.0                   0.0000                   20.000                   20.000                   20.000                   20.000                   20.212                   20.771                   20.000                   20.000                   20.000                   20.000                   20.212                   20.771                   20.000                   20.000                   20.000                   20.000                   20.212                   20.771                   20.000                   20.000                   20.000                   20.000                   20.212                   20.771                   20.000                   20.000                   20.000                   20.000                   20.212                   20.772                   20.000                   20.000                   20.000                   20.000                   20.212                   20.772                   20.000                   20.000                   20.000                   20.000                   20.212                   20.772                   20.000                   20.000                   20.000                   20.000                   20.208                   20.763                   20.000                   20.000                   20.000                   20.000                   20.195                   20.734                   20.000                   20.000                   20.000                   20.000                   20.172                   20.681
16.000                   3.0000                   2.0000                   10000                    4000.0                   5.0000                   34.715                   90.159                   466.37                   531.22                   569.11                   580.14                   34.688                   90.592                   468.78                   533.10                   570.15                   581.10                   34.689                   90.629                   471.17                   537.42                   574.58                   585.47                   34.730                   90.875                   473.97                   541.23                   579.01                   589.61                   34.736                   90.950                   476.30                   543.73                   583.20                   594.34                   34.817                   91.407                   484.01                   554.94                   593.26                   603.78                   34.680                   90.729                   476.89                   545.38                   584.99                   595.86                   34.338                   89.093                   462.19                   527.45                   564.86                   575.76                   33.632                   85.032                   422.94                   478.45                   510.55                   520.36                   48.622                   99.538                   392.84                   438.43                   465.85                   474.12
16.000                   3.0000                   2.0000                   10000                    4000.0                   10.000                   124.58                   247.18                   806.74                   919.71                   971.92                   983.72                   125.13                   248.56                   812.37                   926.00                   978.07                   989.75                   125.21                   248.75                   811.55                   924.75                   976.72                   988.40                   125.24                   248.86                   813.59                   927.09                   979.07                   990.71                   125.39                   249.19                   814.90                   928.58                   980.52                   992.13                   126.08                   250.61                   819.52                   933.28                   984.93                   996.42                   124.64                   247.79                   809.89                   923.34                   975.55                   987.29                   122.40                   243.19                   788.03                   897.99                   950.37                   962.49                   118.20                   231.99                   721.52                   811.72                   859.75                   871.76                   135.31                   241.78                   639.42                   697.94                   730.18                   738.93
16.000                   3.0000                   2.0000                   10000                    4000.0                   15.000                   250.09                   398.66                   1109.8                   1155.7                   1166.3                   1166.4                   250.80                   396.08                   902.84                   959.37                   985.35                   991.07                   251.18                   399.58                   1101.0                   1149.7                   1161.3                   1161.6                   251.04                   397.70                   933.29                   987.23                   1009.3                   1013.7                   251.30                   397.79                   902.01                   950.33                   971.74                   976.36                   252.41                   400.78                   1091.1                   1142.7                   1155.1                   1155.7                   250.00                   397.04                   965.41                   1023.6                   1043.9                   1047.1                   245.89                   390.62                   900.20                   949.59                   971.39                   976.12                   237.47                   373.81                   989.76                   1078.6                   1104.8                   1108.4                   245.42                   371.56                   778.61                   839.99                   871.71                   879.49
16.000                   3.0000                   2.0000                   10000                    4000.0                   20.000                   367.52                   520.60                   1135.1                   1158.0                   1162.5                   1161.5                   366.27                   506.58                   928.25                   966.84                   985.03                   988.98                   367.96                   517.84                   1128.2                   1154.5                   1160.1                   1159.4                   367.16                   511.68                   1007.4                   1046.5                   1059.4                   1060.9                   367.41                   510.37                   934.26                   968.44                   984.18                   987.50                   368.94                   517.72                   1120.5                   1148.1                   1154.0                   1153.3                   366.59                   512.94                   994.44                   1028.7                   1040.7                   1042.3                   361.80                   505.88                   941.66                   974.52                   989.13                   992.14                   350.21                   491.85                   1132.6                   1165.7                   1172.9                   1172.3                   350.08                   475.46                   874.33                   929.28                   956.11                   962.21
16.000                   3.0000                   2.0000                   10000                    4000.0                   25.000                   464.62                   610.48                   1127.0                   1142.8                   1145.4                   1144.2                   461.10                   590.73                   976.46                   1005.3                   1017.3                   1019.5                   464.01                   605.46                   1123.3                   1141.5                   1145.0                   1143.8                   462.53                   597.63                   1062.2                   1089.3                   1096.4                   1096.3                   462.76                   595.12                   986.53                   1013.0                   1023.6                   1025.3                   464.71                   604.57                   1114.1                   1133.5                   1137.3                   1136.3                   462.89                   600.69                   1063.2                   1087.1                   1092.9                   1092.5                   457.99                   592.57                   1003.4                   1030.3                   1039.9                   1041.0                   446.18                   585.14                   1133.4                   1152.8                   1156.3                   1155.1                   439.09                   558.11                   947.79                   992.18                   1012.5                   1016.7
16.000                   3.0000                   2.0000                   10000                    4000.0                   30.000                   544.03                   677.86                   1119.6                   1131.8                   1133.5                   1132.1                   539.12                   657.74                   1047.6                   1070.0                   1076.2                   1076.0                   542.63                   672.15                   1111.6                   1125.5                   1127.8                   1126.5                   540.74                   664.48                   1086.2                   1104.0                   1107.9                   1107.0                   541.02                   662.05                   1060.5                   1081.0                   1086.1                   1085.6                   543.19                   671.13                   1108.0                   1122.6                   1125.1                   1123.9                   541.95                   668.93                   1092.1                   1107.8                   1110.9                   1109.8                   536.95                   660.27                   1069.8                   1089.2                   1093.8                   1093.1                   526.22                   656.72                   1112.1                   1126.8                   1129.4                   1128.1                   514.16                   627.87                   1053.0                   1081.7                   1089.7                   1089.8
16.000                   3.0000                   2.0000                   10000                    4000.0                   35.000                   606.60                   728.23                   1119.4                   1129.2                   1130.4                   1128.9                   601.61                   711.05                   1089.5                   1103.9                   1106.6                   1105.6                   604.94                   723.01                   1113.2                   1124.1                   1125.6                   1124.2                   603.03                   716.63                   1102.2                   1114.7                   1116.8                   1115.5                   603.42                   714.93                   1095.3                   1108.6                   1111.0                   1109.8                   605.46                   722.43                   1111.2                   1122.4                   1124.0                   1122.6                   604.68                   721.29                   1107.4                   1118.7                   1120.4                   1119.1                   599.95                   713.33                   1097.1                   1110.1                   1112.4                   1111.2                   590.64                   710.22                   1109.8                   1121.4                   1123.2                   1121.8                   577.69                   688.24                   1106.7                   1122.4                   1125.3                   1124.2
16.000                   3.0000                   2.0000                   10000                    4000.0                   40.000                   657.35                   772.95                   1124.6                   1132.4                   1132.9                   1131.3                   652.96                   757.76                   1111.6                   1121.2                   1122.3                   1120.8                   655.76                   767.76                   1120.7                   1129.0                   1129.7                   1128.2                   654.05                   762.32                   1116.0                   1124.9                   1125.9                   1124.4                   654.51                   761.37                   1114.4                   1123.4                   1124.4                   1122.9                   656.23                   767.55                   1119.8                   1128.2                   1129.0                   1127.4                   655.76                   767.12                   1119.5                   1127.9                   1128.6                   1127.1                   651.52                   759.31                   1113.4                   1122.6                   1123.6                   1122.1                   643.57                   754.87                   1113.0                   1122.2                   1123.3                   1121.8                   632.39                   741.52                   1135.2                   1144.1                   1144.9                   1143.2
16.000                   3.0000                   2.0000                   10000                    4000.0                   45.000                   698.28                   817.95                   1132.6                   1138.6                   1138.6                   1136.8                   694.71                   805.01                   1126.7                   1133.3                   1133.5                   1131.8                   696.95                   813.10                   1130.3                   1136.5                   1136.6                   1134.9                   695.48                   808.53                   1128.3                   1134.8                   1134.9                   1133.2                   696.00                   808.48                   1128.2                   1134.6                   1134.8                   1133.1                   697.35                   813.21                   1130.1                   1136.4                   1136.4                   1134.7                   697.09                   813.34                   1130.5                   1136.7                   1136.8                   1135.1                   693.49                   805.49                   1126.1                   1132.7                   1133.0                   1131.3                   686.70                   797.91                   1119.8                   1126.9                   1127.3                   1125.7                   678.73                   795.31                   1156.1                   1161.6                   1161.3                   1159.4
16.000                   3.0000                   2.0000                   10000                    4000.0                   50.000                   724.90                   862.04                   1142.4                   1147.1                   1146.7                   1144.8                   721.63                   852.38                   1138.4                   1143.4                   1143.1                   1141.3                   723.51                   858.26                   1140.8                   1145.6                   1145.3                   1143.4                   722.19                   854.73                   1139.4                   1144.4                   1144.1                   1142.2                   722.74                   855.17                   1139.5                   1144.5                   1144.2                   1142.3                   723.97                   858.65                   1140.8                   1145.7                   1145.3                   1143.4                   723.72                   858.75                   1141.1                   1145.9                   1145.5                   1143.7                   720.21                   851.22                   1136.9                   1142.1                   1141.8                   1139.9                   714.10                   841.54                   1129.0                   1134.6                   1134.5                   1132.7                   709.74                   851.85                   1172.8                   1176.9                   1176.1                   1174.0
16.000                   3.0000                   2.0000                   10000                    4000.0                   55.000                   753.95                   905.67                   1152.6                   1156.0                   1155.2                   1153.2                   750.98                   899.13                   1150.3                   1153.9                   1153.1                   1151.1                   752.55                   902.93                   1151.6                   1155.1                   1154.3                   1152.3                   751.31                   900.38                   1150.8                   1154.4                   1153.6                   1151.6                   751.96                   901.25                   1151.1                   1154.7                   1153.8                   1151.9                   753.10                   903.57                   1151.8                   1155.3                   1154.5                   1152.5                   752.82                   903.62                   1152.0                   1155.5                   1154.7                   1152.7                   749.07                   896.37                   1147.9                   1151.6                   1150.9                   1148.9                   743.11                   884.94                   1138.6                   1142.6                   1142.0                   1140.1                   743.21                   907.83                   1189.9                   1192.6                   1191.3                   1189.1
16.000                   3.0000                   2.0000                   10000                    4000.0                   60.000                   795.63                   946.88                   1164.6                   1167.1                   1166.0                   1163.9                   792.93                   942.60                   1163.0                   1165.7                   1164.5                   1162.4                   794.45                   945.04                   1163.9                   1166.5                   1165.4                   1163.3                   793.01                   943.17                   1163.3                   1165.9                   1164.8                   1162.7                   794.02                   944.15                   1163.6                   1166.3                   1165.1                   1163.0                   795.23                   945.75                   1164.2                   1166.8                   1165.6                   1163.5                   794.80                   945.65                   1164.2                   1166.8                   1165.7                   1163.6                   789.02                   938.51                   1159.8                   1162.5                   1161.4                   1159.3                   780.56                   927.19                   1149.9                   1152.9                   1151.9                   1149.9                   789.53                   960.83                   1208.6                   1210.5                   1208.9                   1206.6
16.000                   3.0000                   2.0000                   10000                    4000.0                   65.000                   840.94                   986.84                   1177.4                   1179.2                   1177.8                   1175.6                   838.66                   984.44                   1176.5                   1178.3                   1176.8                   1174.6                   840.02                   985.76                   1177.0                   1178.8                   1177.4                   1175.2                   838.51                   984.46                   1176.5                   1178.3                   1176.9                   1174.7                   839.77                   985.49                   1177.0                   1178.8                   1177.3                   1175.1                   840.95                   986.50                   1177.4                   1179.1                   1177.7                   1175.5                   840.39                   986.25                   1177.3                   1179.0                   1177.6                   1175.4                   833.01                   979.15                   1172.3                   1174.2                   1172.8                   1170.6                   823.05                   968.37                   1162.1                   1164.1                   1162.8                   1160.7                   840.73                   1011.5                   1228.1                   1229.2                   1227.4                   1224.9
16.000                   3.0000                   2.0000                   10000                    4000.0                   70.000                   893.78                   1024.2                   1192.1                   1193.3                   1191.5                   1189.2                   892.24                   1022.9                   1191.5                   1192.7                   1191.0                   1188.7                   893.21                   1023.6                   1191.9                   1193.0                   1191.3                   1189.0                   891.90                   1022.7                   1191.5                   1192.6                   1190.9                   1188.6                   893.17                   1023.6                   1191.9                   1193.1                   1191.4                   1189.1                   894.12                   1024.3                   1192.2                   1193.4                   1191.7                   1189.4                   893.48                   1023.9                   1192.0                   1193.2                   1191.5                   1189.1                   885.40                   1016.7                   1186.3                   1187.5                   1185.8                   1183.6                   875.99                   1007.3                   1176.2                   1177.4                   1175.8                   1173.5                   902.05                   1057.4                   1249.0                   1249.5                   1247.4                   1244.8
16.000                   3.0000                   2.0000                   10000                    4000.0                   75.000                   945.10                   1059.8                   1207.9                   1208.5                   1206.5                   1204.1                   944.21                   1059.3                   1207.6                   1208.2                   1206.2                   1203.8                   944.84                   1059.6                   1207.8                   1208.4                   1206.4                   1204.0                   943.75                   1058.9                   1207.4                   1208.0                   1206.1                   1203.7                   944.97                   1059.8                   1207.9                   1208.5                   1206.5                   1204.1                   945.68                   1060.2                   1208.2                   1208.7                   1206.8                   1204.4                   944.98                   1059.7                   1207.8                   1208.4                   1206.4                   1204.0                   936.47                   1052.2                   1201.3                   1201.9                   1200.0                   1197.6                   928.38                   1044.6                   1191.6                   1192.1                   1190.2                   1187.9                   961.58                   1100.4                   1270.4                   1270.4                   1268.0                   1265.2