% Model:              batchmodel_COIL_N_16_COIL_kr_2.25_COIL_kh_1.5_FUNZ_freq_10000_FUNZ_I_eff_1000.mph
% Version:            COMSOL 6.0.0.318
% Date:               Feb 8 2022, 22:28
% Table:              Tabella 1 - GRIGLIA_T
% COIL_N                 COIL_kr                  COIL_kh                  FUNZ_freq                FUNZ_I_eff               Time (s)                 Temperatura (degC), Point: (0, 0)Temperatura (degC), Point: (15, 0)Temperatura (degC), Point: (28.051, 0)Temperatura (degC), Point: (29.025, 0)Temperatura (degC), Point: (29.61, 0)Temperatura (degC), Point: (29.99, 0)Temperatura (degC), Point: (0, 62.5)Temperatura (degC), Point: (15, 62.5)Temperatura (degC), Point: (28.051, 62.5)Temperatura (degC), Point: (29.025, 62.5)Temperatura (degC), Point: (29.61, 62.5)Temperatura (degC), Point: (29.99, 62.5)Temperatura (degC), Point: (0, 125)Temperatura (degC), Point: (15, 125)Temperatura (degC), Point: (28.051, 125)Temperatura (degC), Point: (29.025, 125)Temperatura (degC), Point: (29.61, 125)Temperatura (degC), Point: (29.99, 125)Temperatura (degC), Point: (0, 187.5)Temperatura (degC), Point: (15, 187.5)Temperatura (degC), Point: (28.051, 187.5)Temperatura (degC), Point: (29.025, 187.5)Temperatura (degC), Point: (29.61, 187.5)Temperatura (degC), Point: (29.99, 187.5)Temperatura (degC), Point: (0, 250)Temperatura (degC), Point: (15, 250)Temperatura (degC), Point: (28.051, 250)Temperatura (degC), Point: (29.025, 250)Temperatura (degC), Point: (29.61, 250)Temperatura (degC), Point: (29.99, 250)Temperatura (degC), Point: (0, 312.5)Temperatura (degC), Point: (15, 312.5)Temperatura (degC), Point: (28.051, 312.5)Temperatura (degC), Point: (29.025, 312.5)Temperatura (degC), Point: (29.61, 312.5)Temperatura (degC), Point: (29.99, 312.5)Temperatura (degC), Point: (0, 375)Temperatura (degC), Point: (15, 375)Temperatura (degC), Point: (28.051, 375)Temperatura (degC), Point: (29.025, 375)Temperatura (degC), Point: (29.61, 375)Temperatura (degC), Point: (29.99, 375)Temperatura (degC), Point: (0, 437.5)Temperatura (degC), Point: (15, 437.5)Temperatura (degC), Point: (28.051, 437.5)Temperatura (degC), Point: (29.025, 437.5)Temperatura (degC), Point: (29.61, 437.5)Temperatura (degC), Point: (29.99, 437.5)Temperatura (degC), Point: (0, 468.75)Temperatura (degC), Point: (15, 468.75)Temperatura (degC), Point: (28.051, 468.75)Temperatura (degC), Point: (29.025, 468.75)Temperatura (degC), Point: (29.61, 468.75)Temperatura (degC), Point: (29.99, 468.75)Temperatura (degC), Point: (0, 492.19)Temperatura (degC), Point: (15, 492.19)Temperatura (degC), Point: (28.051, 492.19)Temperatura (degC), Point: (29.025, 492.19)Temperatura (degC), Point: (29.61, 492.19)Temperatura (degC), Point: (29.99, 492.19)
16.000                   2.2500                   1.5000                   10000                    1000.0                   0.0000                   20.000                   20.000                   20.000                   20.000                   20.007                   20.140                   20.000                   20.000                   20.000                   20.000                   20.007                   20.140                   20.000                   20.000                   20.000                   20.000                   20.007                   20.140                   20.000                   20.000                   20.000                   20.000                   20.007                   20.140                   20.000                   20.000                   20.000                   20.000                   20.007                   20.141                   20.000                   20.000                   20.000                   20.000                   20.007                   20.141                   20.000                   20.000                   20.000                   20.000                   20.007                   20.142                   20.000                   20.000                   20.000                   20.000                   20.007                   20.143                   20.000                   20.000                   20.000                   20.000                   20.007                   20.140                   20.000                   20.000                   20.000                   20.000                   20.005                   20.120
16.000                   2.2500                   1.5000                   10000                    1000.0                   5.0000                   21.746                   26.829                   56.374                   60.300                   62.798                   64.002                   21.765                   26.935                   56.447                   60.368                   62.844                   64.051                   21.722                   26.756                   55.456                   59.295                   61.751                   62.941                   21.761                   26.944                   56.601                   60.564                   63.073                   64.314                   21.741                   26.858                   56.057                   59.997                   62.542                   63.765                   21.754                   26.926                   56.341                   60.210                   62.665                   63.874                   21.781                   27.062                   56.825                   60.695                   63.193                   64.446                   21.750                   26.976                   56.781                   60.769                   63.262                   64.465                   21.584                   26.337                   54.573                   58.420                   60.828                   62.004                   21.756                   26.186                   49.548                   52.620                   54.561                   55.544
16.000                   2.2500                   1.5000                   10000                    1000.0                   10.000                   31.133                   42.193                   80.693                   85.144                   87.957                   89.186                   31.222                   42.446                   81.310                   85.557                   88.162                   89.396                   30.764                   41.358                   76.939                   80.933                   83.519                   84.793                   31.050                   42.036                   79.400                   83.413                   85.914                   87.104                   31.084                   42.100                   79.084                   82.914                   85.286                   86.458                   31.069                   42.143                   80.134                   84.288                   86.867                   88.109                   31.091                   42.226                   80.130                   84.232                   86.860                   88.144                   30.826                   41.659                   77.225                   80.784                   83.109                   84.247                   30.080                   40.409                   76.816                   80.795                   83.264                   84.441                   29.536                   38.719                   68.502                   71.691                   73.675                   74.659
16.000                   2.2500                   1.5000                   10000                    1000.0                   15.000                   46.426                   61.070                   102.36                   106.64                   109.30                   110.60                   46.544                   61.290                   102.87                   107.22                   109.90                   111.18                   45.705                   59.982                   100.86                   105.20                   107.87                   109.11                   46.199                   60.747                   102.15                   106.52                   109.21                   110.50                   46.299                   60.911                   102.36                   106.78                   109.52                   110.83                   46.234                   60.876                   102.55                   106.95                   109.67                   110.96                   46.254                   60.948                   102.88                   107.29                   110.02                   111.31                   45.687                   60.144                   101.87                   106.42                   109.22                   110.55                   43.974                   57.678                   97.347                   101.60                   104.23                   105.49                   42.573                   54.753                   87.326                   90.589                   92.607                   93.610
16.000                   2.2500                   1.5000                   10000                    1000.0                   20.000                   64.994                   81.634                   126.11                   130.67                   133.54                   134.94                   65.138                   81.860                   126.55                   131.16                   134.00                   135.33                   64.032                   80.456                   125.30                   130.07                   132.95                   134.20                   64.582                   81.144                   125.97                   130.64                   133.44                   134.77                   64.648                   81.223                   125.80                   130.44                   133.28                   134.61                   64.627                   81.319                   126.59                   131.28                   134.12                   135.46                   64.702                   81.483                   127.13                   131.79                   134.63                   135.94                   63.802                   80.430                   126.55                   131.60                   134.62                   136.02                   60.726                   76.227                   118.70                   123.22                   126.00                   127.32                   58.451                   72.047                   106.26                   109.58                   111.62                   112.63
16.000                   2.2500                   1.5000                   10000                    1000.0                   25.000                   85.082                   103.15                   150.85                   155.84                   159.00                   160.48                   85.266                   103.42                   151.12                   156.01                   159.02                   160.41                   83.854                   101.68                   149.29                   154.52                   157.73                   159.04                   84.441                   102.41                   149.97                   154.85                   157.77                   159.13                   84.397                   102.30                   149.18                   153.88                   156.66                   157.92                   84.497                   102.68                   151.20                   156.14                   159.11                   160.49                   84.639                   102.89                   151.40                   156.20                   159.14                   160.49                   83.370                   101.51                   150.55                   155.77                   158.93                   160.37                   78.742                   95.450                   140.46                   145.22                   148.16                   149.53                   75.531                   89.818                   124.84                   128.20                   130.27                   131.28
16.000                   2.2500                   1.5000                   10000                    1000.0                   30.000                   106.53                   125.77                   176.47                   181.77                   185.12                   186.60                   106.78                   126.10                   176.36                   181.46                   184.60                   186.03                   104.89                   123.72                   173.20                   178.56                   181.84                   183.11                   105.62                   124.75                   175.11                   180.27                   183.34                   184.73                   105.38                   124.38                   173.67                   178.50                   181.26                   182.49                   105.66                   125.05                   176.48                   181.67                   184.76                   186.18                   105.96                   125.53                   177.48                   182.57                   185.66                   187.04                   104.13                   123.44                   175.14                   180.57                   183.85                   185.33                   97.817                   115.45                   162.71                   167.67                   170.74                   172.15                   93.705                   108.33                   144.34                   147.83                   149.99                   151.02
16.000                   2.2500                   1.5000                   10000                    1000.0                   35.000                   128.38                   148.66                   202.06                   207.64                   211.14                   212.60                   128.75                   149.13                   201.79                   207.09                   210.36                   211.83                   126.38                   146.11                   197.33                   202.80                   206.11                   207.35                   127.23                   147.43                   200.46                   205.91                   209.12                   210.56                   126.79                   146.80                   198.47                   203.47                   206.25                   207.45                   127.25                   147.75                   201.92                   207.35                   210.58                   212.04                   127.76                   148.54                   203.94                   209.34                   212.58                   213.99                   125.23                   145.59                   199.80                   205.46                   208.86                   210.38                   117.25                   135.70                   185.05                   190.20                   193.37                   194.81                   112.18                   127.11                   164.10                   167.73                   169.97                   171.03
16.000                   2.2500                   1.5000                   10000                    1000.0                   40.000                   150.97                   171.93                   227.15                   232.92                   236.48                   237.92                   151.61                   172.79                   227.54                   233.06                   236.47                   237.97                   148.84                   169.30                   222.27                   227.88                   231.24                   232.51                   149.75                   170.76                   226.03                   231.71                   235.09                   236.57                   149.12                   169.91                   223.81                   229.08                   231.99                   233.20                   149.75                   171.05                   227.57                   233.27                   236.68                   238.18                   150.56                   172.30                   230.83                   236.57                   239.97                   241.40                   146.99                   168.09                   224.43                   230.35                   233.92                   235.49                   137.40                   156.47                   207.43                   212.72                   215.98                   217.45                   131.15                   146.44                   184.32                   188.06                   190.38                   191.46
16.000                   2.2500                   1.5000                   10000                    1000.0                   45.000                   173.56                   195.20                   252.24                   258.20                   261.82                   263.24                   174.48                   196.45                   253.30                   259.04                   262.57                   264.11                   171.29                   192.50                   247.22                   252.97                   256.38                   257.67                   172.27                   194.08                   251.59                   257.51                   261.06                   262.59                   171.44                   193.02                   249.16                   254.69                   257.72                   258.95                   172.24                   194.36                   253.21                   259.19                   262.78                   264.33                   173.36                   196.06                   257.71                   263.81                   267.36                   268.81                   168.75                   190.59                   249.07                   255.24                   258.98                   260.59                   157.56                   177.24                   229.82                   235.25                   238.59                   240.08                   150.13                   165.76                   204.54                   208.39                   210.78                   211.89
16.000                   2.2500                   1.5000                   10000                    1000.0                   50.000                   196.15                   218.47                   277.33                   283.48                   287.17                   288.56                   197.34                   220.10                   279.06                   285.01                   288.68                   290.26                   193.75                   215.69                   272.16                   278.06                   281.52                   282.83                   194.79                   217.41                   277.15                   283.31                   287.03                   288.60                   193.77                   216.13                   274.51                   280.29                   283.46                   284.70                   194.74                   217.67                   278.85                   285.12                   288.87                   290.48                   196.16                   219.82                   284.60                   291.04                   294.74                   296.22                   190.52                   213.08                   273.70                   280.13                   284.04                   285.70                   177.71                   198.01                   252.21                   257.77                   261.21                   262.72                   169.11                   185.09                   224.75                   228.73                   231.19                   232.32
16.000                   2.2500                   1.5000                   10000                    1000.0                   55.000                   218.58                   241.45                   301.82                   308.12                   311.92                   313.38                   219.78                   243.04                   303.60                   309.77                   313.57                   315.18                   216.14                   238.70                   297.29                   303.40                   307.05                   308.45                   217.04                   240.17                   301.24                   307.55                   311.38                   312.98                   215.99                   238.90                   299.03                   305.08                   308.52                   309.88                   216.96                   240.35                   302.62                   309.03                   312.90                   314.52                   218.40                   242.41                   307.55                   314.11                   317.96                   319.49                   211.90                   234.90                   296.49                   302.98                   306.96                   308.62                   197.77                   218.48                   273.79                   279.51                   283.04                   284.57                   187.92                   204.32                   244.85                   248.88                   251.38                   252.52
16.000                   2.2500                   1.5000                   10000                    1000.0                   60.000                   241.00                   264.40                   326.25                   332.69                   336.62                   338.16                   242.19                   265.92                   328.04                   334.42                   338.35                   339.98                   238.52                   261.70                   322.44                   328.78                   332.61                   334.12                   239.27                   262.87                   325.20                   331.65                   335.59                   337.21                   238.19                   261.64                   323.47                   329.79                   333.51                   335.00                   239.17                   262.98                   326.22                   332.75                   336.73                   338.38                   240.59                   264.90                   330.13                   336.79                   340.79                   342.38                   233.24                   256.66                   319.10                   325.65                   329.67                   331.33                   217.82                   238.91                   295.31                   301.17                   304.80                   306.34                   206.71                   223.54                   264.93                   269.02                   271.55                   272.69
16.000                   2.2500                   1.5000                   10000                    1000.0                   65.000                   263.41                   287.35                   350.68                   357.27                   361.32                   362.94                   264.59                   288.79                   352.48                   359.07                   363.14                   364.79                   260.89                   284.69                   347.59                   354.15                   358.17                   359.78                   261.49                   285.57                   349.16                   355.75                   359.80                   361.44                   260.40                   284.38                   347.91                   354.50                   358.51                   360.13                   261.37                   285.60                   349.82                   356.48                   360.57                   362.23                   262.79                   287.39                   352.72                   359.48                   363.62                   365.27                   254.59                   278.42                   341.71                   348.32                   352.39                   354.05                   237.88                   259.35                   316.82                   322.84                   326.55                   328.11                   225.50                   242.76                   285.01                   289.16                   291.72                   292.86
16.000                   2.2500                   1.5000                   10000                    1000.0                   70.000                   285.71                   310.31                   375.63                   382.43                   386.63                   388.31                   286.69                   311.42                   376.84                   383.63                   387.81                   389.47                   283.03                   307.45                   372.35                   379.11                   383.27                   384.96                   283.52                   308.13                   373.27                   380.03                   384.18                   385.83                   282.47                   307.04                   372.52                   379.42                   383.72                   385.43                   283.44                   308.20                   373.86                   380.69                   384.91                   386.58                   284.59                   309.49                   375.00                   381.79                   386.01                   387.68                   275.69                   299.99                   364.55                   371.27                   375.41                   377.08                   257.66                   279.50                   338.13                   344.31                   348.13                   349.70                   244.21                   261.82                   304.79                   308.99                   311.58                   312.72
16.000                   2.2500                   1.5000                   10000                    1000.0                   75.000                   307.93                   333.28                   400.91                   407.98                   412.33                   414.06                   308.60                   333.90                   401.13                   408.12                   412.40                   414.08                   305.02                   330.05                   396.85                   403.81                   408.09                   409.81                   305.42                   330.59                   397.47                   404.43                   408.67                   410.32                   304.45                   329.66                   397.23                   404.48                   409.06                   410.85                   305.42                   330.77                   398.19                   405.24                   409.58                   411.27                   306.13                   331.34                   397.09                   403.86                   408.11                   409.77                   296.62                   321.45                   387.53                   394.41                   398.64                   400.30                   277.26                   299.45                   359.29                   365.65                   369.58                   371.17                   262.86                   280.79                   324.36                   328.62                   331.24                   332.38