% Model:              batchmodel_COIL_N_16_COIL_kr_3_COIL_kh_1_FUNZ_freq_10000_FUNZ_I_eff_1000.mph
% Version:            COMSOL 6.0.0.318
% Date:               Feb 8 2022, 23:21
% Table:              Tabella 1 - GRIGLIA_T
% COIL_N                 COIL_kr                  COIL_kh                  FUNZ_freq                FUNZ_I_eff               Time (s)                 Temperatura (degC), Point: (0, 0)Temperatura (degC), Point: (15, 0)Temperatura (degC), Point: (28.051, 0)Temperatura (degC), Point: (29.025, 0)Temperatura (degC), Point: (29.61, 0)Temperatura (degC), Point: (29.99, 0)Temperatura (degC), Point: (0, 62.5)Temperatura (degC), Point: (15, 62.5)Temperatura (degC), Point: (28.051, 62.5)Temperatura (degC), Point: (29.025, 62.5)Temperatura (degC), Point: (29.61, 62.5)Temperatura (degC), Point: (29.99, 62.5)Temperatura (degC), Point: (0, 125)Temperatura (degC), Point: (15, 125)Temperatura (degC), Point: (28.051, 125)Temperatura (degC), Point: (29.025, 125)Temperatura (degC), Point: (29.61, 125)Temperatura (degC), Point: (29.99, 125)Temperatura (degC), Point: (0, 187.5)Temperatura (degC), Point: (15, 187.5)Temperatura (degC), Point: (28.051, 187.5)Temperatura (degC), Point: (29.025, 187.5)Temperatura (degC), Point: (29.61, 187.5)Temperatura (degC), Point: (29.99, 187.5)Temperatura (degC), Point: (0, 250)Temperatura (degC), Point: (15, 250)Temperatura (degC), Point: (28.051, 250)Temperatura (degC), Point: (29.025, 250)Temperatura (degC), Point: (29.61, 250)Temperatura (degC), Point: (29.99, 250)Temperatura (degC), Point: (0, 312.5)Temperatura (degC), Point: (15, 312.5)Temperatura (degC), Point: (28.051, 312.5)Temperatura (degC), Point: (29.025, 312.5)Temperatura (degC), Point: (29.61, 312.5)Temperatura (degC), Point: (29.99, 312.5)Temperatura (degC), Point: (0, 375)Temperatura (degC), Point: (15, 375)Temperatura (degC), Point: (28.051, 375)Temperatura (degC), Point: (29.025, 375)Temperatura (degC), Point: (29.61, 375)Temperatura (degC), Point: (29.99, 375)Temperatura (degC), Point: (0, 437.5)Temperatura (degC), Point: (15, 437.5)Temperatura (degC), Point: (28.051, 437.5)Temperatura (degC), Point: (29.025, 437.5)Temperatura (degC), Point: (29.61, 437.5)Temperatura (degC), Point: (29.99, 437.5)Temperatura (degC), Point: (0, 468.75)Temperatura (degC), Point: (15, 468.75)Temperatura (degC), Point: (28.051, 468.75)Temperatura (degC), Point: (29.025, 468.75)Temperatura (degC), Point: (29.61, 468.75)Temperatura (degC), Point: (29.99, 468.75)Temperatura (degC), Point: (0, 492.19)Temperatura (degC), Point: (15, 492.19)Temperatura (degC), Point: (28.051, 492.19)Temperatura (degC), Point: (29.025, 492.19)Temperatura (degC), Point: (29.61, 492.19)Temperatura (degC), Point: (29.99, 492.19)
16.000                   3.0000                   1.0000                   10000                    1000.0                   0.0000                   20.000                   20.000                   20.000                   20.000                   20.007                   20.137                   20.000                   20.000                   20.000                   20.000                   20.007                   20.137                   20.000                   20.000                   20.000                   20.000                   20.007                   20.137                   20.000                   20.000                   20.000                   20.000                   20.007                   20.138                   20.000                   20.000                   20.000                   20.000                   20.007                   20.138                   20.000                   20.000                   20.000                   20.000                   20.007                   20.138                   20.000                   20.000                   20.000                   20.000                   20.007                   20.138                   20.000                   20.000                   20.000                   20.000                   20.007                   20.137                   20.000                   20.000                   20.000                   20.000                   20.006                   20.131                   20.000                   20.000                   20.000                   20.000                   20.004                   20.109
16.000                   3.0000                   1.0000                   10000                    1000.0                   5.0000                   21.652                   27.448                   58.056                   61.930                   64.357                   65.524                   21.584                   27.187                   56.934                   60.769                   63.192                   64.392                   21.615                   27.340                   57.466                   61.301                   63.724                   64.920                   21.596                   27.238                   56.811                   60.603                   63.009                   64.205                   21.641                   27.442                   57.578                   61.391                   63.821                   65.025                   21.653                   27.475                   57.615                   61.452                   63.878                   65.079                   21.627                   27.355                   57.085                   60.896                   63.302                   64.487                   21.549                   27.043                   56.229                   60.007                   62.384                   63.555                   21.362                   26.159                   52.191                   55.675                   57.885                   58.994                   21.810                   26.627                   48.245                   50.941                   52.647                   53.529
16.000                   3.0000                   1.0000                   10000                    1000.0                   10.000                   31.760                   44.898                   89.140                   94.169                   96.949                   98.290                   31.450                   44.124                   85.493                   90.032                   92.735                   94.031                   31.692                   44.741                   88.337                   93.142                   95.979                   97.311                   31.411                   44.053                   86.702                   91.674                   94.554                   95.867                   31.636                   44.596                   89.636                   95.260                   98.176                   99.421                   31.678                   44.694                   89.688                   95.000                   98.082                   99.516                   31.622                   44.579                   88.529                   93.422                   96.160                   97.451                   31.026                   43.282                   84.097                   88.834                   91.669                   93.024                   29.694                   40.227                   73.860                   77.542                   79.824                   80.945                   30.255                   40.698                   69.294                   72.076                   73.790                   74.652
16.000                   3.0000                   1.0000                   10000                    1000.0                   15.000                   49.293                   67.317                   119.92                   125.49                   128.46                   129.83                   48.397                   65.482                   114.13                   119.17                   122.25                   123.59                   49.249                   67.084                   118.23                   123.31                   126.35                   127.78                   48.180                   65.095                   114.32                   119.60                   122.66                   123.96                   48.939                   66.623                   120.07                   126.23                   129.35                   130.77                   48.692                   65.958                   115.91                   121.00                   123.85                   125.15                   48.937                   66.444                   116.67                   121.88                   124.81                   126.11                   47.146                   63.481                   110.28                   115.19                   117.99                   119.29                   43.496                   56.970                   93.973                   97.770                   100.11                   101.25                   44.051                   57.718                   89.876                   92.723                   94.453                   95.308
16.000                   3.0000                   1.0000                   10000                    1000.0                   20.000                   70.416                   91.580                   149.82                   155.94                   159.05                   160.44                   68.757                   88.619                   141.40                   146.59                   149.68                   150.96                   70.350                   91.125                   146.22                   151.42                   154.56                   156.04                   68.154                   87.519                   139.62                   144.94                   148.08                   149.33                   69.746                   90.362                   148.08                   154.38                   157.57                   159.04                   68.923                   88.673                   141.47                   146.67                   149.51                   150.80                   69.720                   89.923                   143.38                   148.78                   151.81                   153.16                   66.416                   85.241                   135.68                   140.76                   143.55                   144.85                   59.840                   74.999                   114.23                   118.17                   120.60                   121.77                   60.138                   75.504                   109.59                   112.53                   114.30                   115.17
16.000                   3.0000                   1.0000                   10000                    1000.0                   25.000                   93.412                   116.25                   177.31                   183.58                   186.48                   187.80                   90.992                   112.40                   167.34                   172.49                   175.52                   176.71                   93.158                   115.34                   171.77                   176.95                   180.09                   181.56                   89.727                   110.15                   162.79                   167.98                   171.06                   172.24                   92.200                   114.15                   172.85                   179.09                   182.28                   183.76                   90.972                   112.13                   167.46                   172.94                   175.95                   177.31                   92.317                   113.84                   168.79                   174.33                   177.48                   178.88                   87.427                   107.57                   160.11                   165.38                   168.19                   169.50                   77.779                   93.882                   134.70                   138.77                   141.29                   142.48                   77.631                   93.898                   129.30                   132.34                   134.19                   135.07
16.000                   3.0000                   1.0000                   10000                    1000.0                   30.000                   116.30                   139.53                   199.65                   205.68                   208.58                   209.91                   113.34                   135.27                   190.33                   195.46                   198.49                   199.71                   115.88                   138.43                   194.36                   199.51                   202.67                   204.11                   111.60                   132.41                   184.82                   189.94                   193.02                   194.22                   114.69                   136.98                   194.41                   200.32                   203.51                   204.97                   113.13                   134.76                   190.15                   195.64                   198.76                   200.16                   115.01                   136.95                   191.78                   197.27                   200.46                   201.89                   108.55                   129.19                   181.83                   187.07                   189.95                   191.29                   96.206                   112.85                   154.89                   159.10                   161.70                   162.92                   94.918                   111.20                   146.74                   149.86                   151.75                   152.65
16.000                   3.0000                   1.0000                   10000                    1000.0                   35.000                   139.07                   161.26                   216.26                   221.61                   224.77                   226.18                   135.81                   157.13                   210.05                   215.17                   218.29                   219.66                   138.51                   160.26                   213.66                   218.80                   221.96                   223.38                   133.79                   154.27                   205.60                   210.69                   213.83                   215.19                   137.23                   158.77                   212.41                   217.70                   220.87                   222.29                   135.42                   156.48                   209.18                   214.38                   217.52                   218.93                   137.82                   159.17                   212.07                   217.29                   220.48                   221.90                   129.80                   150.00                   200.52                   205.51                   208.53                   209.89                   115.18                   131.92                   174.77                   179.11                   181.80                   183.05                   111.98                   127.29                   161.67                   164.81                   166.73                   167.65
16.000                   3.0000                   1.0000                   10000                    1000.0                   40.000                   161.06                   182.67                   236.31                   241.63                   245.03                   246.42                   157.61                   178.56                   230.90                   236.09                   239.28                   240.72                   160.47                   181.87                   235.16                   240.41                   243.58                   244.97                   155.71                   176.25                   228.37                   233.58                   236.81                   238.29                   159.06                   180.20                   232.99                   238.26                   241.45                   242.86                   157.14                   177.94                   230.21                   235.35                   238.52                   239.92                   159.89                   180.89                   233.01                   238.15                   241.29                   242.67                   150.42                   170.42                   220.52                   225.48                   228.53                   229.90                   133.86                   150.75                   194.26                   198.71                   201.46                   202.73                   128.78                   143.56                   177.45                   180.61                   182.56                   183.49
16.000                   3.0000                   1.0000                   10000                    1000.0                   45.000                   182.59                   203.84                   257.61                   263.12                   266.69                   268.05                   179.03                   199.77                   252.35                   257.67                   260.94                   262.42                   181.99                   203.24                   257.30                   262.69                   265.91                   267.29                   177.40                   198.15                   251.67                   257.05                   260.38                   261.94                   180.46                   201.41                   254.56                   260.02                   263.27                   264.67                   178.54                   199.24                   252.04                   257.27                   260.49                   261.89                   181.52                   202.32                   254.47                   259.65                   262.79                   264.15                   170.68                   190.60                   241.08                   246.12                   249.23                   250.59                   152.40                   169.45                   213.71                   218.25                   221.07                   222.35                   145.45                   159.93                   193.66                   196.86                   198.83                   199.77
16.000                   3.0000                   1.0000                   10000                    1000.0                   50.000                   203.26                   224.49                   279.13                   284.72                   288.23                   289.68                   199.81                   220.67                   274.69                   280.25                   283.68                   285.17                   202.65                   223.92                   278.78                   284.37                   287.79                   289.25                   198.54                   219.52                   274.12                   279.70                   283.15                   284.67                   201.08                   222.12                   276.47                   282.06                   285.49                   286.96                   199.34                   220.20                   274.34                   279.88                   283.30                   284.78                   202.33                   223.27                   277.23                   282.74                   286.14                   287.60                   190.26                   210.30                   262.16                   267.47                   270.75                   272.18                   170.69                   188.05                   233.53                   238.24                   241.16                   242.47                   161.95                   176.40                   210.52                   213.78                   215.80                   216.75
16.000                   3.0000                   1.0000                   10000                    1000.0                   55.000                   224.67                   246.65                   304.74                   310.74                   314.35                   315.91                   221.15                   242.66                   299.22                   305.08                   308.71                   310.23                   224.04                   245.97                   303.27                   309.12                   312.73                   314.25                   220.15                   241.79                   298.74                   304.63                   308.26                   309.78                   222.40                   244.09                   301.18                   307.12                   310.72                   312.25                   220.78                   242.35                   299.22                   305.10                   308.72                   310.25                   223.70                   245.31                   302.02                   307.88                   311.47                   313.00                   210.51                   231.20                   285.73                   291.38                   294.85                   296.34                   189.39                   207.26                   254.46                   259.38                   262.42                   263.77                   179.25                   194.04                   229.05                   232.40                   234.46                   235.43
16.000                   3.0000                   1.0000                   10000                    1000.0                   60.000                   246.53                   269.74                   332.88                   339.46                   343.29                   344.95                   242.84                   265.30                   325.09                   331.31                   335.14                   336.71                   245.89                   268.87                   329.60                   335.77                   339.56                   341.13                   242.05                   264.61                   324.70                   330.96                   334.80                   336.34                   244.13                   266.84                   327.62                   334.04                   337.80                   339.37                   242.61                   265.24                   325.69                   331.95                   335.75                   337.32                   245.42                   268.02                   328.07                   334.29                   338.02                   339.59                   231.15                   252.84                   310.83                   316.87                   320.53                   322.07                   208.34                   226.85                   276.08                   281.22                   284.41                   285.79                   197.03                   212.39                   248.62                   252.06                   254.18                   255.16
16.000                   3.0000                   1.0000                   10000                    1000.0                   65.000                   268.40                   292.82                   361.03                   368.19                   372.24                   373.99                   264.53                   287.95                   350.96                   357.54                   361.57                   363.18                   267.73                   291.76                   355.94                   362.42                   366.39                   368.00                   263.96                   287.42                   350.66                   357.29                   361.33                   362.90                   265.87                   289.59                   354.06                   360.97                   364.88                   366.50                   264.45                   288.13                   352.16                   358.79                   362.78                   364.39                   267.13                   290.73                   354.13                   360.69                   364.58                   366.18                   251.80                   274.48                   335.93                   342.36                   346.21                   347.80                   227.28                   246.44                   297.70                   303.07                   306.39                   307.81                   214.81                   230.75                   268.18                   271.72                   273.89                   274.88
16.000                   3.0000                   1.0000                   10000                    1000.0                   70.000                   289.91                   315.11                   385.64                   393.04                   397.18                   398.99                   286.31                   310.68                   376.64                   383.51                   387.71                   389.34                   289.64                   314.64                   381.60                   388.29                   392.36                   393.98                   285.81                   310.09                   375.87                   382.81                   387.04                   388.62                   287.59                   312.21                   379.41                   386.55                   390.51                   392.16                   286.32                   310.97                   378.11                   385.08                   389.24                   390.88                   288.84                   313.35                   379.56                   386.40                   390.39                   392.02                   272.56                   296.20                   360.80                   367.60                   371.65                   373.29                   246.31                   266.10                   319.30                   324.89                   328.35                   329.81                   232.67                   249.07                   287.57                   291.20                   293.43                   294.43
16.000                   3.0000                   1.0000                   10000                    1000.0                   75.000                   311.06                   336.59                   406.71                   414.01                   418.10                   419.90                   308.19                   333.49                   402.12                   409.23                   413.55                   415.20                   311.61                   337.50                   406.59                   413.38                   417.46                   419.08                   307.62                   332.61                   400.35                   407.52                   411.92                   413.50                   309.29                   334.69                   403.66                   410.78                   414.69                   416.34                   308.22                   333.77                   403.55                   410.80                   415.12                   416.78                   310.54                   335.88                   404.37                   411.41                   415.47                   417.09                   293.43                   318.01                   385.42                   392.57                   396.86                   398.55                   265.42                   285.82                   340.88                   346.69                   350.28                   351.78                   250.59                   267.34                   306.77                   310.50                   312.79                   313.81