% Model:              batchmodel_COIL_N_16_COIL_kr_3_COIL_kh_2_FUNZ_freq_2000_FUNZ_I_eff_4000.mph
% Version:            COMSOL 6.0.0.318
% Date:               Feb 9 2022, 00:11
% Table:              Tabella 1 - GRIGLIA_T
% COIL_N                 COIL_kr                  COIL_kh                  FUNZ_freq                FUNZ_I_eff               Time (s)                 Temperatura (degC), Point: (0, 0)Temperatura (degC), Point: (15, 0)Temperatura (degC), Point: (25.641, 0)Temperatura (degC), Point: (27.821, 0)Temperatura (degC), Point: (29.128, 0)Temperatura (degC), Point: (29.99, 0)Temperatura (degC), Point: (0, 62.5)Temperatura (degC), Point: (15, 62.5)Temperatura (degC), Point: (25.641, 62.5)Temperatura (degC), Point: (27.821, 62.5)Temperatura (degC), Point: (29.128, 62.5)Temperatura (degC), Point: (29.99, 62.5)Temperatura (degC), Point: (0, 125)Temperatura (degC), Point: (15, 125)Temperatura (degC), Point: (25.641, 125)Temperatura (degC), Point: (27.821, 125)Temperatura (degC), Point: (29.128, 125)Temperatura (degC), Point: (29.99, 125)Temperatura (degC), Point: (0, 187.5)Temperatura (degC), Point: (15, 187.5)Temperatura (degC), Point: (25.641, 187.5)Temperatura (degC), Point: (27.821, 187.5)Temperatura (degC), Point: (29.128, 187.5)Temperatura (degC), Point: (29.99, 187.5)Temperatura (degC), Point: (0, 250)Temperatura (degC), Point: (15, 250)Temperatura (degC), Point: (25.641, 250)Temperatura (degC), Point: (27.821, 250)Temperatura (degC), Point: (29.128, 250)Temperatura (degC), Point: (29.99, 250)Temperatura (degC), Point: (0, 312.5)Temperatura (degC), Point: (15, 312.5)Temperatura (degC), Point: (25.641, 312.5)Temperatura (degC), Point: (27.821, 312.5)Temperatura (degC), Point: (29.128, 312.5)Temperatura (degC), Point: (29.99, 312.5)Temperatura (degC), Point: (0, 375)Temperatura (degC), Point: (15, 375)Temperatura (degC), Point: (25.641, 375)Temperatura (degC), Point: (27.821, 375)Temperatura (degC), Point: (29.128, 375)Temperatura (degC), Point: (29.99, 375)Temperatura (degC), Point: (0, 437.5)Temperatura (degC), Point: (15, 437.5)Temperatura (degC), Point: (25.641, 437.5)Temperatura (degC), Point: (27.821, 437.5)Temperatura (degC), Point: (29.128, 437.5)Temperatura (degC), Point: (29.99, 437.5)Temperatura (degC), Point: (0, 468.75)Temperatura (degC), Point: (15, 468.75)Temperatura (degC), Point: (25.641, 468.75)Temperatura (degC), Point: (27.821, 468.75)Temperatura (degC), Point: (29.128, 468.75)Temperatura (degC), Point: (29.99, 468.75)Temperatura (degC), Point: (0, 492.19)Temperatura (degC), Point: (15, 492.19)Temperatura (degC), Point: (25.641, 492.19)Temperatura (degC), Point: (27.821, 492.19)Temperatura (degC), Point: (29.128, 492.19)Temperatura (degC), Point: (29.99, 492.19)
16.000                   3.0000                   2.0000                   2000.0                   4000.0                   0.0000                   20.000                   20.000                   20.000                   20.000                   20.040                   20.173                   20.000                   20.000                   20.000                   20.000                   20.040                   20.173                   20.000                   20.000                   20.000                   20.000                   20.040                   20.173                   20.000                   20.000                   20.000                   20.000                   20.040                   20.173                   20.000                   20.000                   20.000                   20.000                   20.040                   20.173                   20.000                   20.000                   20.000                   20.000                   20.040                   20.173                   20.000                   20.000                   20.000                   20.000                   20.040                   20.173                   20.000                   20.000                   20.000                   20.000                   20.039                   20.171                   20.000                   20.000                   20.000                   20.000                   20.034                   20.160                   20.000                   20.000                   20.000                   20.000                   20.021                   20.124
16.000                   3.0000                   2.0000                   2000.0                   4000.0                   5.0000                   26.329                   48.939                   144.18                   180.29                   204.22                   212.12                   26.324                   48.945                   144.59                   180.87                   204.99                   213.03                   26.324                   48.939                   144.75                   180.57                   204.17                   212.22                   26.327                   48.950                   144.61                   180.37                   203.82                   211.83                   26.359                   49.121                   145.56                   181.88                   205.76                   213.79                   26.353                   49.155                   146.47                   183.66                   208.47                   216.77                   26.245                   48.575                   143.01                   179.24                   202.43                   210.37                   26.041                   47.669                   139.15                   173.91                   196.26                   203.86                   25.452                   44.908                   126.87                   156.81                   176.17                   183.13                   30.274                   46.427                   103.73                   122.47                   134.46                   139.37
16.000                   3.0000                   2.0000                   2000.0                   4000.0                   10.000                   63.939                   118.36                   256.01                   300.11                   326.43                   334.31                   64.044                   118.73                   256.85                   300.56                   326.57                   334.56                   64.092                   118.87                   257.67                   301.64                   328.16                   336.06                   64.088                   118.88                   257.74                   301.76                   328.45                   336.47                   64.369                   119.57                   259.19                   303.35                   329.98                   338.15                   64.372                   119.75                   260.63                   305.38                   331.87                   339.95                   63.538                   117.49                   253.46                   296.78                   323.34                   331.71                   61.730                   113.39                   243.10                   283.89                   308.66                   316.57                   57.733                   103.78                   219.08                   254.59                   276.14                   283.02                   67.312                   103.56                   180.60                   201.33                   214.02                   219.08
16.000                   3.0000                   2.0000                   2000.0                   4000.0                   15.000                   127.21                   195.57                   352.64                   403.47                   433.50                   442.32                   127.60                   196.25                   353.46                   404.21                   434.21                   443.02                   127.86                   196.75                   354.69                   405.66                   435.76                   444.58                   127.92                   196.90                   354.98                   405.98                   436.12                   444.96                   128.58                   198.00                   356.90                   408.11                   438.35                   447.21                   128.71                   198.54                   358.96                   410.55                   440.90                   449.78                   127.01                   195.68                   354.32                   405.73                   436.09                   444.98                   122.10                   187.41                   336.88                   384.82                   413.46                   422.02                   112.44                   170.08                   299.96                   340.46                   365.16                   372.84                   115.11                   160.15                   249.07                   274.28                   290.00                   295.37
16.000                   3.0000                   2.0000                   2000.0                   4000.0                   20.000                   199.11                   275.47                   456.34                   516.15                   549.83                   559.11                   199.69                   276.25                   457.38                   517.25                   550.93                   560.20                   200.09                   276.83                   458.32                   518.29                   551.97                   561.25                   200.32                   277.20                   459.03                   519.12                   552.89                   562.18                   201.20                   278.39                   460.79                   521.00                   554.82                   564.12                   201.51                   279.01                   462.09                   522.44                   556.26                   565.55                   199.50                   276.28                   457.95                   517.89                   551.57                   560.85                   191.02                   263.81                   434.21                   489.85                   521.66                   530.61                   174.34                   237.47                   381.57                   427.40                   454.45                   462.41                   165.99                   214.42                   311.40                   339.10                   356.08                   361.62
16.000                   3.0000                   2.0000                   2000.0                   4000.0                   25.000                   271.22                   355.10                   557.44                   625.59                   662.44                   671.96                   271.88                   355.88                   558.40                   626.63                   663.46                   672.96                   272.36                   356.47                   559.14                   627.42                   664.21                   673.70                   272.72                   356.96                   559.92                   628.29                   665.16                   674.67                   273.70                   358.12                   561.29                   629.63                   666.51                   676.02                   274.10                   358.72                   562.15                   630.55                   667.36                   676.84                   271.98                   356.11                   558.50                   626.55                   663.31                   672.81                   260.11                   339.80                   529.60                   592.32                   627.03                   636.27                   236.26                   304.55                   463.12                   514.23                   543.41                   551.57                   218.37                   269.97                   374.51                   404.59                   422.72                   428.36
16.000                   3.0000                   2.0000                   2000.0                   4000.0                   30.000                   341.16                   430.56                   647.02                   722.72                   763.61                   773.49                   341.82                   431.28                   647.83                   723.63                   764.50                   774.37                   342.32                   431.84                   648.50                   724.42                   765.29                   775.15                   342.76                   432.38                   649.24                   725.25                   766.21                   776.08                   343.74                   433.43                   650.29                   726.27                   767.22                   777.10                   344.18                   433.98                   650.96                   727.13                   768.05                   777.90                   342.03                   431.49                   647.63                   723.16                   763.93                   773.80                   327.21                   412.07                   614.43                   681.93                   718.46                   727.77                   296.89                   369.85                   541.14                   597.03                   628.12                   636.38                   271.11                   325.64                   436.82                   468.93                   487.93                   493.58
16.000                   3.0000                   2.0000                   2000.0                   4000.0                   35.000                   407.64                   500.44                   727.04                   812.49                   857.55                   867.62                   408.25                   501.06                   727.73                   813.24                   858.31                   868.39                   408.74                   501.60                   728.57                   814.39                   859.51                   869.58                   409.22                   502.15                   729.37                   815.34                   860.57                   870.65                   410.13                   503.06                   730.29                   816.33                   861.54                   871.62                   410.56                   503.58                   731.04                   817.39                   862.67                   872.74                   408.44                   501.17                   727.55                   812.98                   857.95                   868.01                   391.15                   479.18                   687.93                   760.92                   799.56                   808.87                   355.52                   432.11                   611.97                   671.05                   703.22                   711.39                   323.52                   380.52                   497.01                   530.73                   550.31                   555.88
16.000                   3.0000                   2.0000                   2000.0                   4000.0                   40.000                   469.45                   564.49                   810.76                   909.85                   955.51                   964.43                   469.98                   565.02                   811.41                   910.42                   956.04                   964.97                   470.46                   565.56                   812.55                   911.85                   957.45                   966.34                   470.96                   566.12                   813.59                   913.00                   958.63                   967.50                   471.78                   566.90                   814.34                   913.70                   959.16                   968.00                   472.20                   567.40                   815.34                   914.82                   960.32                   969.16                   470.12                   565.11                   811.95                   911.38                   957.00                   965.90                   450.70                   540.65                   759.75                   845.40                   888.47                   897.77                   410.98                   489.44                   671.51                   731.78                   764.38                   772.30                   374.38                   433.05                   552.89                   587.47                   607.21                   612.62
16.000                   3.0000                   2.0000                   2000.0                   4000.0                   45.000                   526.85                   622.72                   901.30                   999.86                   1039.0                   1045.1                   527.32                   623.17                   902.02                   1000.5                   1039.6                   1045.6                   527.79                   623.71                   903.25                   1001.7                   1040.6                   1046.6                   528.28                   624.26                   904.33                   1002.7                   1041.5                   1047.4                   529.02                   624.91                   904.62                   1002.7                   1041.3                   1047.2                   529.43                   625.43                   906.04                   1004.1                   1042.6                   1048.4                   527.42                   623.40                   904.56                   1003.8                   1042.8                   1048.7                   505.87                   596.67                   836.94                   931.68                   973.81                   981.70                   462.49                   541.38                   720.88                   783.12                   817.98                   826.00                   422.78                   482.16                   602.18                   636.21                   655.44                   660.50
16.000                   3.0000                   2.0000                   2000.0                   4000.0                   50.000                   580.28                   673.50                   926.24                   989.78                   1016.2                   1020.1                   580.71                   674.48                   942.88                   1014.2                   1041.2                   1044.4                   581.19                   675.30                   951.40                   1025.7                   1052.1                   1054.9                   581.65                   675.13                   931.01                   994.97                   1020.9                   1024.4                   582.35                   676.74                   962.78                   1039.5                   1064.5                   1066.5                   582.76                   676.99                   950.75                   1021.4                   1046.6                   1049.2                   580.95                   675.60                   952.36                   1023.5                   1048.3                   1050.7                   557.61                   647.15                   899.20                   982.74                   1017.6                   1023.2                   510.68                   588.18                   763.58                   827.80                   861.17                   868.30                   468.42                   527.49                   642.56                   674.22                   691.83                   696.27
16.000                   3.0000                   2.0000                   2000.0                   4000.0                   55.000                   625.94                   712.54                   933.04                   979.17                   998.25                   1000.6                   626.35                   714.29                   951.12                   1001.8                   1021.7                   1023.8                   626.89                   715.61                   963.36                   1018.1                   1038.2                   1040.1                   627.33                   714.44                   937.33                   982.58                   1001.0                   1003.1                   628.14                   718.68                   993.32                   1051.8                   1068.5                   1068.7                   628.51                   717.55                   959.42                   1008.4                   1026.5                   1028.1                   627.14                   717.05                   961.44                   1009.6                   1026.9                   1028.3                   603.15                   689.87                   948.84                   1020.1                   1046.6                   1049.6                   553.76                   627.77                   801.78                   864.83                   895.99                   902.25                   509.76                   566.69                   674.42                   703.79                   720.22                   724.23
16.000                   3.0000                   2.0000                   2000.0                   4000.0                   60.000                   663.91                   743.74                   943.09                   980.60                   996.41                   998.09                   664.29                   746.10                   958.29                   998.40                   1014.6                   1016.0                   664.88                   747.96                   969.92                   1013.1                   1029.6                   1030.9                   665.41                   746.27                   947.51                   983.67                   998.57                   1000.0                   666.47                   754.43                   1014.6                   1060.0                   1071.8                   1070.9                   666.68                   750.76                   968.35                   1006.5                   1020.8                   1021.7                   665.83                   750.94                   969.50                   1006.7                   1020.4                   1021.1                   642.66                   727.95                   1006.2                   1065.3                   1081.2                   1080.9                   591.76                   661.75                   834.87                   894.02                   922.50                   927.84                   547.03                   600.61                   700.61                   727.70                   743.08                   746.72
16.000                   3.0000                   2.0000                   2000.0                   4000.0                   65.000                   694.99                   772.71                   956.44                   988.18                   1001.5                   1002.6                   695.34                   775.65                   968.91                   1002.1                   1015.4                   1016.3                   695.93                   778.06                   978.31                   1013.3                   1026.7                   1027.3                   696.59                   776.42                   961.44                   991.67                   1004.0                   1004.8                   697.92                   789.40                   1028.7                   1064.1                   1072.6                   1071.0                   697.87                   782.49                   980.96                   1012.5                   1023.9                   1024.1                   697.48                   783.11                   981.45                   1012.3                   1023.4                   1023.5                   677.00                   765.92                   1055.0                   1096.0                   1104.2                   1102.0                   625.16                   691.05                   862.95                   917.72                   943.55                   948.09                   580.52                   630.34                   722.57                   747.98                   762.74                   766.11
16.000                   3.0000                   2.0000                   2000.0                   4000.0                   70.000                   718.81                   802.83                   972.16                   999.29                   1010.3                   1010.7                   719.13                   806.15                   982.80                   1010.9                   1021.6                   1021.7                   719.66                   808.94                   990.10                   1018.9                   1029.4                   1029.3                   720.37                   808.13                   978.20                   1003.9                   1013.9                   1014.0                   721.85                   824.93                   1040.1                   1067.9                   1074.0                   1071.9                   721.53                   815.33                   996.63                   1023.3                   1032.2                   1031.7                   721.44                   816.14                   996.76                   1023.0                   1031.7                   1031.2                   705.77                   808.67                   1083.9                   1111.9                   1115.9                   1112.8                   654.34                   716.08                   887.00                   937.30                   960.81                   964.66                   610.25                   656.40                   741.62                   766.40                   780.80                   783.95
16.000                   3.0000                   2.0000                   2000.0                   4000.0                   75.000                   737.78                   834.33                   990.10                   1013.3                   1021.9                   1021.6                   738.15                   837.71                   999.55                   1023.4                   1031.4                   1030.8                   738.76                   840.66                   1005.7                   1029.7                   1037.3                   1036.4                   739.77                   841.09                   997.44                   1019.5                   1027.0                   1026.3                   741.87                   859.58                   1051.2                   1073.1                   1077.1                   1074.6                   741.17                   848.55                   1014.6                   1037.1                   1043.5                   1042.2                   741.25                   849.38                   1014.7                   1037.0                   1043.3                   1041.9                   728.43                   853.20                   1099.6                   1119.0                   1120.5                   1116.9                   679.53                   737.84                   907.61                   953.27                   974.54                   977.76                   636.48                   679.07                   759.19                   783.95                   798.15                   801.09