% Model:              batchmodel_COIL_N_16_COIL_kr_3_COIL_kh_1.5_FUNZ_freq_2000_FUNZ_I_eff_4000.mph
% Version:            COMSOL 6.0.0.318
% Date:               Feb 8 2022, 23:52
% Table:              Tabella 1 - GRIGLIA_T
% COIL_N                 COIL_kr                  COIL_kh                  FUNZ_freq                FUNZ_I_eff               Time (s)                 Temperatura (degC), Point: (0, 0)Temperatura (degC), Point: (15, 0)Temperatura (degC), Point: (25.641, 0)Temperatura (degC), Point: (27.821, 0)Temperatura (degC), Point: (29.128, 0)Temperatura (degC), Point: (29.99, 0)Temperatura (degC), Point: (0, 62.5)Temperatura (degC), Point: (15, 62.5)Temperatura (degC), Point: (25.641, 62.5)Temperatura (degC), Point: (27.821, 62.5)Temperatura (degC), Point: (29.128, 62.5)Temperatura (degC), Point: (29.99, 62.5)Temperatura (degC), Point: (0, 125)Temperatura (degC), Point: (15, 125)Temperatura (degC), Point: (25.641, 125)Temperatura (degC), Point: (27.821, 125)Temperatura (degC), Point: (29.128, 125)Temperatura (degC), Point: (29.99, 125)Temperatura (degC), Point: (0, 187.5)Temperatura (degC), Point: (15, 187.5)Temperatura (degC), Point: (25.641, 187.5)Temperatura (degC), Point: (27.821, 187.5)Temperatura (degC), Point: (29.128, 187.5)Temperatura (degC), Point: (29.99, 187.5)Temperatura (degC), Point: (0, 250)Temperatura (degC), Point: (15, 250)Temperatura (degC), Point: (25.641, 250)Temperatura (degC), Point: (27.821, 250)Temperatura (degC), Point: (29.128, 250)Temperatura (degC), Point: (29.99, 250)Temperatura (degC), Point: (0, 312.5)Temperatura (degC), Point: (15, 312.5)Temperatura (degC), Point: (25.641, 312.5)Temperatura (degC), Point: (27.821, 312.5)Temperatura (degC), Point: (29.128, 312.5)Temperatura (degC), Point: (29.99, 312.5)Temperatura (degC), Point: (0, 375)Temperatura (degC), Point: (15, 375)Temperatura (degC), Point: (25.641, 375)Temperatura (degC), Point: (27.821, 375)Temperatura (degC), Point: (29.128, 375)Temperatura (degC), Point: (29.99, 375)Temperatura (degC), Point: (0, 437.5)Temperatura (degC), Point: (15, 437.5)Temperatura (degC), Point: (25.641, 437.5)Temperatura (degC), Point: (27.821, 437.5)Temperatura (degC), Point: (29.128, 437.5)Temperatura (degC), Point: (29.99, 437.5)Temperatura (degC), Point: (0, 468.75)Temperatura (degC), Point: (15, 468.75)Temperatura (degC), Point: (25.641, 468.75)Temperatura (degC), Point: (27.821, 468.75)Temperatura (degC), Point: (29.128, 468.75)Temperatura (degC), Point: (29.99, 468.75)Temperatura (degC), Point: (0, 492.19)Temperatura (degC), Point: (15, 492.19)Temperatura (degC), Point: (25.641, 492.19)Temperatura (degC), Point: (27.821, 492.19)Temperatura (degC), Point: (29.128, 492.19)Temperatura (degC), Point: (29.99, 492.19)
16.000                   3.0000                   1.5000                   2000.0                   4000.0                   0.0000                   20.000                   20.000                   20.000                   20.000                   20.039                   20.172                   20.000                   20.000                   20.000                   20.000                   20.039                   20.172                   20.000                   20.000                   20.000                   20.000                   20.039                   20.172                   20.000                   20.000                   20.000                   20.000                   20.039                   20.172                   20.000                   20.000                   20.000                   20.000                   20.039                   20.172                   20.000                   20.000                   20.000                   20.000                   20.039                   20.172                   20.000                   20.000                   20.000                   20.000                   20.039                   20.172                   20.000                   20.000                   20.000                   20.000                   20.038                   20.170                   20.000                   20.000                   20.000                   20.000                   20.034                   20.160                   20.000                   20.000                   20.000                   20.000                   20.022                   20.126
16.000                   3.0000                   1.5000                   2000.0                   4000.0                   5.0000                   25.926                   45.818                   127.31                   159.14                   180.04                   187.54                   25.915                   45.761                   127.05                   158.74                   179.56                   187.04                   25.918                   45.778                   127.09                   158.93                   179.79                   187.27                   25.923                   45.786                   127.19                   158.92                   179.79                   187.24                   25.928                   45.832                   127.52                   159.42                   180.44                   187.89                   25.813                   45.418                   127.34                   159.20                   180.13                   187.63                   26.116                   46.488                   129.74                   161.76                   182.79                   190.28                   26.046                   46.165                   127.34                   158.61                   179.05                   186.47                   25.266                   43.147                   117.02                   145.04                   163.53                   170.34                   25.935                   40.044                   93.606                   113.00                   125.65                   130.60
16.000                   3.0000                   1.5000                   2000.0                   4000.0                   10.000                   59.430                   108.30                   236.13                   278.23                   304.01                   312.56                   59.317                   107.97                   234.80                   276.59                   302.67                   311.21                   59.316                   107.95                   234.66                   275.99                   301.61                   310.05                   59.309                   107.81                   233.67                   274.98                   300.75                   309.27                   59.388                   107.88                   232.88                   273.89                   299.37                   307.57                   59.329                   108.40                   236.39                   277.64                   302.88                   311.21                   60.189                   109.57                   237.91                   279.18                   304.90                   313.35                   59.107                   106.77                   228.44                   267.45                   291.92                   300.55                   55.246                   98.999                   211.93                   247.13                   269.09                   276.58                   60.063                   94.685                   174.87                   198.16                   212.46                   217.85
16.000                   3.0000                   1.5000                   2000.0                   4000.0                   15.000                   117.21                   183.73                   339.65                   390.09                   420.02                   428.86                   116.86                   183.01                   338.05                   388.31                   418.18                   427.02                   116.81                   182.86                   337.53                   387.74                   417.58                   426.42                   116.71                   182.55                   336.77                   386.91                   416.74                   425.57                   116.79                   182.38                   335.80                   385.77                   415.57                   424.43                   117.24                   183.64                   338.27                   388.40                   418.29                   427.13                   118.21                   184.73                   339.99                   390.30                   420.16                   428.99                   114.91                   178.57                   325.92                   373.34                   401.77                   410.25                   106.56                   164.15                   293.70                   333.97                   358.54                   366.19                   105.08                   150.31                   241.23                   266.90                   282.85                   288.28
16.000                   3.0000                   1.5000                   2000.0                   4000.0                   20.000                   187.85                   263.95                   444.18                   504.23                   538.42                   547.83                   187.26                   263.13                   443.12                   503.03                   537.30                   546.68                   187.15                   262.97                   443.29                   503.02                   537.86                   547.40                   186.96                   262.68                   442.96                   503.35                   537.76                   547.30                   186.91                   262.42                   442.77                   503.76                   538.53                   547.94                   187.82                   263.67                   443.86                   503.18                   537.31                   546.98                   188.66                   264.61                   445.34                   505.61                   539.98                   549.40                   182.36                   254.77                   423.90                   478.55                   509.66                   518.97                   167.98                   231.60                   376.33                   422.64                   450.04                   458.09                   156.59                   206.26                   305.12                   333.02                   350.02                   355.73
16.000                   3.0000                   1.5000                   2000.0                   4000.0                   25.000                   260.39                   344.85                   549.25                   618.37                   656.34                   666.23                   259.73                   344.12                   548.59                   617.65                   655.69                   665.56                   259.62                   344.05                   549.00                   618.05                   656.41                   666.37                   259.41                   343.82                   548.84                   618.25                   656.39                   666.35                   259.29                   343.61                   548.90                   618.73                   657.11                   667.01                   260.34                   344.71                   549.53                   618.35                   656.34                   666.37                   260.95                   345.28                   549.95                   619.04                   657.04                   666.90                   251.45                   331.44                   521.80                   584.33                   618.80                   628.28                   230.15                   299.13                   459.18                   510.94                   540.57                   548.85                   210.37                   263.32                   369.74                   400.25                   418.57                   424.36
16.000                   3.0000                   1.5000                   2000.0                   4000.0                   30.000                   331.25                   420.98                   637.15                   710.59                   750.91                   761.12                   330.67                   420.41                   636.76                   710.34                   750.66                   760.86                   330.61                   420.40                   636.84                   710.49                   750.77                   760.98                   330.42                   420.20                   636.58                   710.05                   750.34                   760.54                   330.34                   420.11                   636.77                   710.41                   750.69                   760.90                   331.29                   421.10                   637.94                   711.93                   752.48                   762.68                   331.54                   421.09                   636.63                   709.69                   749.73                   759.88                   319.24                   404.56                   607.90                   675.99                   712.49                   721.68                   291.37                   365.23                   538.60                   594.95                   626.42                   634.83                   264.85                   320.64                   434.30                   467.24                   486.67                   492.45
16.000                   3.0000                   1.5000                   2000.0                   4000.0                   35.000                   398.67                   491.82                   718.22                   803.70                   848.48                   858.83                   398.18                   491.36                   718.06                   803.94                   848.70                   859.03                   398.15                   491.39                   718.14                   804.13                   848.89                   859.23                   397.98                   491.17                   717.61                   803.24                   848.05                   858.38                   397.96                   491.24                   718.25                   804.26                   849.01                   859.33                   398.80                   492.14                   719.70                   806.33                   851.44                   861.75                   398.67                   491.57                   716.86                   801.78                   846.39                   856.72                   384.07                   472.75                   683.85                   758.91                   799.77                   809.33                   350.84                   428.29                   610.23                   669.90                   702.36                   710.65                   318.74                   377.12                   496.78                   531.58                   551.70                   557.42
16.000                   3.0000                   1.5000                   2000.0                   4000.0                   40.000                   461.27                   556.60                   802.59                   900.74                   946.81                   956.09                   460.86                   556.25                   802.91                   901.71                   947.79                   957.04                   460.85                   556.31                   803.37                   902.33                   948.48                   957.75                   460.70                   556.08                   802.57                   901.32                   947.52                   956.79                   460.76                   556.33                   803.97                   903.14                   949.30                   958.52                   461.49                   557.08                   804.93                   904.21                   950.55                   959.78                   461.02                   556.12                   801.28                   899.21                   945.41                   954.74                   444.39                   535.01                   756.72                   843.40                   887.80                   897.27                   406.98                   486.30                   670.18                   731.07                   764.42                   772.61                   370.94                   431.06                   554.12                   589.64                   609.85                   615.39
16.000                   3.0000                   1.5000                   2000.0                   4000.0                   45.000                   520.30                   616.49                   888.82                   987.03                   1027.1                   1033.7                   519.94                   616.27                   890.57                   989.75                   1029.9                   1036.3                   519.96                   616.38                   891.62                   991.03                   1031.2                   1037.6                   519.81                   616.11                   889.07                   987.56                   1027.7                   1034.2                   519.99                   616.59                   892.66                   992.04                   1032.0                   1038.4                   520.60                   617.15                   893.27                   992.60                   1032.5                   1038.9                   519.84                   615.98                   888.53                   986.94                   1027.0                   1033.6                   501.16                   592.69                   832.66                   927.96                   970.70                   978.76                   460.07                   539.97                   721.42                   784.21                   819.17                   827.25                   421.16                   482.16                   605.48                   640.44                   660.10                   665.25
16.000                   3.0000                   1.5000                   2000.0                   4000.0                   50.000                   574.26                   668.09                   931.16                   1002.6                   1030.6                   1034.3                   573.98                   668.24                   938.35                   1012.6                   1040.6                   1044.1                   574.03                   668.50                   941.34                   1016.3                   1044.1                   1047.4                   573.90                   667.99                   931.26                   1001.6                   1029.0                   1032.6                   574.21                   668.97                   940.75                   1013.7                   1040.8                   1044.0                   574.71                   669.69                   949.87                   1025.8                   1052.1                   1054.7                   573.85                   668.30                   933.53                   1002.5                   1028.8                   1032.1                   553.33                   643.37                   893.69                   976.53                   1011.5                   1017.2                   508.74                   587.04                   764.62                   829.89                   863.55                   870.74                   467.59                   528.01                   645.77                   678.30                   696.37                   700.91
16.000                   3.0000                   1.5000                   2000.0                   4000.0                   55.000                   621.39                   709.01                   939.23                   990.45                   1011.6                   1014.2                   621.25                   709.81                   949.45                   1003.2                   1024.6                   1027.0                   621.42                   710.65                   956.06                   1010.7                   1031.5                   1033.6                   621.40                   710.17                   946.95                   997.38                   1017.2                   1019.4                   621.85                   711.65                   957.00                   1009.3                   1028.9                   1030.8                   622.41                   713.70                   980.09                   1036.3                   1053.8                   1054.5                   621.60                   711.40                   950.23                   998.04                   1016.1                   1017.8                   599.97                   686.42                   931.48                   1000.1                   1028.1                   1032.0                   552.86                   627.71                   804.79                   869.42                   901.19                   907.54                   510.01                   568.22                   678.51                   708.75                   725.64                   729.75
16.000                   3.0000                   1.5000                   2000.0                   4000.0                   60.000                   660.00                   740.10                   946.50                   987.67                   1005.1                   1007.0                   660.03                   741.63                   956.86                   999.60                   1017.0                   1018.8                   660.52                   743.83                   968.45                   1011.9                   1028.4                   1029.7                   660.77                   743.94                   963.92                   1004.6                   1020.1                   1021.3                   661.32                   745.90                   973.54                   1015.5                   1030.6                   1031.5                   662.24                   750.58                   1005.4                   1049.2                   1061.3                   1060.7                   661.45                   746.16                   966.37                   1004.1                   1017.9                   1018.7                   639.76                   722.10                   965.90                   1024.7                   1046.2                   1048.2                   591.46                   662.51                   842.05                   904.17                   933.68                   939.15                   547.87                   602.60                   705.16                   733.19                   749.20                   752.99
16.000                   3.0000                   1.5000                   2000.0                   4000.0                   65.000                   691.62                   768.26                   957.00                   991.41                   1006.0                   1007.3                   691.82                   770.72                   967.27                   1002.6                   1017.0                   1018.0                   692.70                   775.28                   984.08                   1020.2                   1033.1                   1033.5                   693.24                   776.47                   983.20                   1017.5                   1029.5                   1029.8                   693.83                   779.15                   992.71                   1027.7                   1039.2                   1039.1                   695.19                   787.72                   1027.5                   1061.8                   1070.2                   1068.7                   694.33                   779.85                   984.32                   1015.8                   1026.5                   1026.5                   674.13                   756.56                   1019.9                   1067.4                   1079.2                   1078.2                   625.34                   692.52                   870.80                   926.90                   952.99                   957.49                   581.76                   632.61                   727.01                   753.37                   768.63                   772.09
16.000                   3.0000                   1.5000                   2000.0                   4000.0                   70.000                   715.62                   797.37                   970.37                   999.48                   1011.5                   1012.1                   715.95                   800.80                   980.90                   1010.7                   1022.3                   1022.6                   717.11                   808.34                   1002.1                   1032.6                   1042.3                   1041.7                   717.82                   810.87                   1003.7                   1032.8                   1041.8                   1041.1                   718.36                   814.22                   1013.0                   1042.2                   1050.6                   1049.5                   719.96                   826.21                   1045.9                   1072.9                   1078.6                   1076.4                   719.01                   815.19                   1003.9                   1030.6                   1038.8                   1037.9                   702.76                   797.10                   1061.1                   1093.7                   1099.5                   1097.0                   654.79                   717.83                   892.63                   942.30                   965.30                   968.98                   611.60                   658.64                   745.83                   771.49                   786.31                   789.52
16.000                   3.0000                   1.5000                   2000.0                   4000.0                   75.000                   734.74                   827.86                   986.28                   1010.9                   1020.4                   1020.3                   735.25                   831.96                   997.13                   1022.4                   1031.1                   1030.7                   737.01                   841.99                   1020.7                   1046.0                   1052.9                   1051.5                   738.11                   845.63                   1023.7                   1048.0                   1054.3                   1052.8                   738.77                   849.42                   1032.3                   1056.2                   1061.9                   1060.0                   741.20                   863.46                   1060.9                   1082.0                   1085.5                   1082.8                   739.74                   850.58                   1023.8                   1046.2                   1051.9                   1050.3                   725.65                   841.86                   1086.6                   1108.4                   1110.7                   1107.4                   680.30                   740.04                   910.87                   954.76                   975.09                   978.08                   637.99                   681.28                   763.31                   788.81                   803.24                   806.18