% Model:              batchmodel_COIL_N_16_COIL_kr_3_COIL_kh_1_FUNZ_freq_6000_FUNZ_I_eff_4000.mph
% Version:            COMSOL 6.0.0.318
% Date:               Feb 8 2022, 23:25
% Table:              Tabella 1 - GRIGLIA_T
% COIL_N                 COIL_kr                  COIL_kh                  FUNZ_freq                FUNZ_I_eff               Time (s)                 Temperatura (degC), Point: (0, 0)Temperatura (degC), Point: (15, 0)Temperatura (degC), Point: (27.483, 0)Temperatura (degC), Point: (28.742, 0)Temperatura (degC), Point: (29.497, 0)Temperatura (degC), Point: (29.99, 0)Temperatura (degC), Point: (0, 62.5)Temperatura (degC), Point: (15, 62.5)Temperatura (degC), Point: (27.483, 62.5)Temperatura (degC), Point: (28.742, 62.5)Temperatura (degC), Point: (29.497, 62.5)Temperatura (degC), Point: (29.99, 62.5)Temperatura (degC), Point: (0, 125)Temperatura (degC), Point: (15, 125)Temperatura (degC), Point: (27.483, 125)Temperatura (degC), Point: (28.742, 125)Temperatura (degC), Point: (29.497, 125)Temperatura (degC), Point: (29.99, 125)Temperatura (degC), Point: (0, 187.5)Temperatura (degC), Point: (15, 187.5)Temperatura (degC), Point: (27.483, 187.5)Temperatura (degC), Point: (28.742, 187.5)Temperatura (degC), Point: (29.497, 187.5)Temperatura (degC), Point: (29.99, 187.5)Temperatura (degC), Point: (0, 250)Temperatura (degC), Point: (15, 250)Temperatura (degC), Point: (27.483, 250)Temperatura (degC), Point: (28.742, 250)Temperatura (degC), Point: (29.497, 250)Temperatura (degC), Point: (29.99, 250)Temperatura (degC), Point: (0, 312.5)Temperatura (degC), Point: (15, 312.5)Temperatura (degC), Point: (27.483, 312.5)Temperatura (degC), Point: (28.742, 312.5)Temperatura (degC), Point: (29.497, 312.5)Temperatura (degC), Point: (29.99, 312.5)Temperatura (degC), Point: (0, 375)Temperatura (degC), Point: (15, 375)Temperatura (degC), Point: (27.483, 375)Temperatura (degC), Point: (28.742, 375)Temperatura (degC), Point: (29.497, 375)Temperatura (degC), Point: (29.99, 375)Temperatura (degC), Point: (0, 437.5)Temperatura (degC), Point: (15, 437.5)Temperatura (degC), Point: (27.483, 437.5)Temperatura (degC), Point: (28.742, 437.5)Temperatura (degC), Point: (29.497, 437.5)Temperatura (degC), Point: (29.99, 437.5)Temperatura (degC), Point: (0, 468.75)Temperatura (degC), Point: (15, 468.75)Temperatura (degC), Point: (27.483, 468.75)Temperatura (degC), Point: (28.742, 468.75)Temperatura (degC), Point: (29.497, 468.75)Temperatura (degC), Point: (29.99, 468.75)Temperatura (degC), Point: (0, 492.19)Temperatura (degC), Point: (15, 492.19)Temperatura (degC), Point: (27.483, 492.19)Temperatura (degC), Point: (28.742, 492.19)Temperatura (degC), Point: (29.497, 492.19)Temperatura (degC), Point: (29.99, 492.19)
16.000                   3.0000                   1.0000                   6000.0                   4000.0                   0.0000                   20.000                   20.000                   20.000                   20.000                   20.121                   20.478                   20.000                   20.000                   20.000                   20.000                   20.121                   20.478                   20.000                   20.000                   20.000                   20.000                   20.121                   20.479                   20.000                   20.000                   20.000                   20.000                   20.121                   20.479                   20.000                   20.000                   20.000                   20.000                   20.121                   20.479                   20.000                   20.000                   20.000                   20.000                   20.121                   20.480                   20.000                   20.000                   20.000                   20.000                   20.121                   20.480                   20.000                   20.000                   20.000                   20.000                   20.119                   20.475                   20.000                   20.000                   20.000                   20.000                   20.112                   20.458                   20.000                   20.000                   20.000                   20.000                   20.096                   20.422
16.000                   3.0000                   1.0000                   6000.0                   4000.0                   5.0000                   30.067                   68.914                   292.09                   340.51                   369.79                   378.56                   30.031                   68.840                   293.16                   341.70                   371.06                   380.05                   30.027                   68.851                   293.17                   341.08                   369.90                   378.99                   30.055                   68.976                   293.31                   341.16                   369.99                   379.03                   30.100                   69.177                   293.41                   341.43                   369.96                   378.78                   30.165                   69.483                   295.19                   343.31                   372.26                   381.24                   30.107                   69.268                   295.76                   344.61                   373.57                   382.50                   30.116                   69.088                   289.48                   336.43                   365.28                   374.34                   29.643                   66.493                   275.50                   319.25                   346.07                   354.48                   37.556                   74.729                   251.02                   284.22                   304.71                   311.76
16.000                   3.0000                   1.0000                   6000.0                   4000.0                   10.000                   98.574                   189.16                   541.10                   613.30                   652.63                   663.31                   98.696                   189.63                   543.26                   615.45                   654.73                   665.32                   98.663                   189.49                   541.62                   613.44                   653.21                   663.73                   98.652                   189.51                   544.09                   617.03                   656.33                   666.74                   98.773                   189.71                   544.06                   616.49                   655.83                   666.53                   99.297                   190.84                   547.10                   620.14                   660.10                   670.73                   98.975                   190.21                   546.43                   619.73                   659.81                   670.61                   97.418                   186.08                   524.84                   591.79                   629.26                   639.68                   94.351                   178.14                   494.00                   555.24                   590.43                   600.35                   111.99                   188.30                   440.79                   485.65                   511.59                   519.21
16.000                   3.0000                   1.0000                   6000.0                   4000.0                   15.000                   199.02                   318.62                   745.31                   842.05                   890.56                   902.56                   199.32                   319.19                   746.55                   843.18                   892.17                   904.25                   199.23                   319.05                   746.82                   843.74                   893.74                   905.75                   199.03                   318.57                   743.91                   839.53                   889.16                   901.29                   199.28                   319.13                   745.32                   840.52                   889.31                   901.37                   200.19                   320.44                   748.07                   844.75                   894.62                   906.74                   199.70                   319.99                   752.46                   852.70                   902.37                   914.49                   195.42                   312.13                   725.48                   817.29                   865.74                   877.42                   188.95                   298.99                   679.26                   754.33                   796.19                   807.30                   208.05                   305.46                   604.26                   655.92                   685.19                   693.26
16.000                   3.0000                   1.0000                   6000.0                   4000.0                   20.000                   306.77                   437.43                   893.88                   972.99                   1006.6                   1013.4                   307.11                   437.11                   877.48                   956.48                   991.36                   998.61                   307.02                   437.58                   891.72                   972.35                   1007.1                   1014.1                   306.45                   436.13                   889.86                   975.07                   1012.0                   1019.5                   306.92                   437.23                   890.04                   970.87                   1005.8                   1012.8                   308.14                   440.98                   1011.6                   1096.5                   1119.5                   1121.8                   307.66                   438.48                   877.20                   952.55                   985.73                   992.62                   301.17                   430.38                   979.50                   1078.7                   1107.3                   1110.9                   291.19                   411.36                   825.66                   915.66                   957.53                   966.74                   301.73                   407.75                   707.67                   758.77                   787.50                   794.93
16.000                   3.0000                   1.0000                   6000.0                   4000.0                   25.000                   405.38                   536.80                   928.92                   970.55                   987.93                   991.19                   405.02                   531.74                   898.20                   948.90                   972.38                   977.24                   405.12                   534.12                   923.26                   971.82                   993.28                   997.52                   404.19                   532.67                   920.57                   967.68                   987.96                   991.87                   404.91                   533.89                   928.43                   976.53                   997.16                   1001.1                   407.37                   545.14                   1098.3                   1138.4                   1147.3                   1146.6                   406.11                   534.72                   896.00                   941.21                   961.85                   966.07                   399.47                   534.90                   1097.9                   1141.0                   1150.4                   1149.9                   385.13                   506.17                   973.36                   1056.7                   1083.0                   1086.5                   385.25                   490.91                   778.79                   831.27                   858.69                   865.23
16.000                   3.0000                   1.0000                   6000.0                   4000.0                   30.000                   488.75                   615.18                   987.61                   1020.1                   1031.4                   1032.6                   486.67                   604.33                   925.12                   963.30                   981.14                   984.66                   487.15                   608.81                   970.99                   1009.7                   1024.8                   1027.0                   486.34                   608.71                   968.01                   1003.3                   1016.8                   1018.8                   487.02                   608.98                   977.05                   1015.6                   1029.9                   1031.8                   491.14                   625.34                   1112.9                   1139.2                   1144.4                   1143.0                   488.61                   609.01                   930.65                   964.61                   980.07                   983.00                   483.57                   616.39                   1102.9                   1131.2                   1137.0                   1135.8                   465.30                   586.25                   1099.8                   1141.0                   1150.1                   1149.4                   457.48                   558.22                   830.99                   877.53                   901.23                   906.60
16.000                   3.0000                   1.0000                   6000.0                   4000.0                   35.000                   559.18                   678.02                   1052.7                   1077.4                   1083.2                   1082.4                   555.32                   662.66                   959.38                   988.65                   1001.6                   1003.8                   556.07                   668.48                   1019.6                   1051.0                   1060.7                   1061.1                   555.72                   669.54                   1018.0                   1046.5                   1055.2                   1055.4                   556.08                   668.58                   1018.4                   1049.2                   1058.8                   1059.2                   561.42                   687.16                   1116.7                   1135.9                   1139.1                   1137.5                   557.91                   668.19                   971.23                   997.99                   1009.2                   1010.9                   554.49                   678.51                   1100.1                   1121.5                   1125.4                   1124.0                   534.47                   653.13                   1130.0                   1155.0                   1159.4                   1157.7                   519.54                   613.14                   874.00                   915.61                   936.40                   940.88
16.000                   3.0000                   1.0000                   6000.0                   4000.0                   40.000                   618.84                   730.03                   1086.9                   1103.2                   1105.9                   1104.3                   613.63                   711.20                   1001.2                   1024.9                   1033.4                   1034.1                   614.48                   717.56                   1056.5                   1079.8                   1085.6                   1084.8                   614.63                   719.53                   1060.4                   1081.4                   1086.1                   1085.1                   614.59                   717.36                   1051.4                   1074.7                   1080.6                   1079.9                   620.54                   736.90                   1115.0                   1129.5                   1131.4                   1129.5                   616.52                   717.06                   1021.4                   1044.2                   1051.3                   1051.2                   614.35                   727.87                   1095.9                   1112.5                   1115.2                   1113.5                   594.87                   708.61                   1125.5                   1142.6                   1145.0                   1143.2                   574.10                   659.88                   911.90                   948.48                   966.60                   970.30
16.000                   3.0000                   1.0000                   6000.0                   4000.0                   45.000                   662.75                   774.24                   1098.9                   1111.1                   1112.6                   1110.7                   657.18                   752.63                   1046.0                   1064.4                   1069.2                   1068.5                   657.91                   758.85                   1077.2                   1094.1                   1097.4                   1096.0                   658.38                   761.92                   1082.0                   1097.3                   1100.0                   1098.4                   658.07                   758.56                   1073.9                   1090.9                   1094.3                   1093.0                   663.83                   779.32                   1113.0                   1124.4                   1125.5                   1123.5                   659.94                   759.29                   1060.7                   1077.8                   1081.7                   1080.6                   658.46                   769.25                   1099.4                   1112.5                   1114.2                   1112.4                   641.20                   752.37                   1121.4                   1134.6                   1136.1                   1134.0                   617.41                   696.75                   941.87                   972.46                   987.39                   990.22
16.000                   3.0000                   1.0000                   6000.0                   4000.0                   50.000                   698.15                   817.55                   1108.1                   1117.3                   1117.8                   1115.7                   692.90                   795.73                   1079.2                   1092.6                   1094.8                   1093.3                   693.46                   800.99                   1093.3                   1105.4                   1107.0                   1105.2                   694.10                   804.72                   1097.6                   1108.7                   1109.9                   1108.0                   693.65                   800.85                   1091.8                   1103.9                   1105.5                   1103.7                   698.68                   820.66                   1114.1                   1123.1                   1123.5                   1121.3                   695.33                   802.77                   1088.2                   1100.4                   1102.1                   1100.3                   694.37                   810.55                   1105.2                   1115.3                   1116.2                   1114.1                   680.00                   794.85                   1119.8                   1129.9                   1130.6                   1128.5                   655.12                   730.54                   976.25                   1001.7                   1013.0                   1014.6
16.000                   3.0000                   1.0000                   6000.0                   4000.0                   55.000                   726.74                   859.89                   1116.0                   1122.9                   1122.8                   1120.5                   722.00                   840.37                   1100.8                   1110.0                   1110.6                   1108.6                   722.38                   844.02                   1106.3                   1114.8                   1115.2                   1113.1                   723.12                   847.90                   1109.3                   1117.3                   1117.6                   1115.4                   722.59                   844.23                   1105.8                   1114.4                   1114.8                   1112.7                   726.79                   861.00                   1118.1                   1125.0                   1124.9                   1122.6                   724.07                   847.23                   1106.0                   1114.4                   1114.7                   1112.6                   723.43                   851.81                   1112.4                   1120.0                   1120.1                   1117.9                   711.76                   836.35                   1119.8                   1127.7                   1127.7                   1125.5                   687.47                   764.05                   1018.0                   1038.7                   1045.9                   1046.1
16.000                   3.0000                   1.0000                   6000.0                   4000.0                   60.000                   751.65                   899.53                   1123.5                   1128.6                   1127.9                   1125.5                   746.09                   884.05                   1114.6                   1120.9                   1120.6                   1118.3                   746.32                   885.95                   1116.8                   1123.0                   1122.6                   1120.3                   747.35                   889.51                   1118.9                   1124.8                   1124.3                   1121.9                   746.67                   886.57                   1116.9                   1123.0                   1122.6                   1120.3                   751.29                   899.36                   1124.2                   1129.4                   1128.7                   1126.3                   748.41                   889.98                   1117.9                   1123.8                   1123.3                   1121.0                   747.55                   891.47                   1119.9                   1125.6                   1125.1                   1122.7                   735.86                   874.99                   1120.6                   1126.7                   1126.2                   1123.9                   713.35                   804.21                   1072.7                   1087.0                   1089.9                   1088.5
16.000                   3.0000                   1.0000                   6000.0                   4000.0                   65.000                   787.16                   936.28                   1131.1                   1134.8                   1133.6                   1131.1                   779.99                   924.57                   1125.4                   1129.8                   1128.9                   1126.4                   779.93                   925.30                   1126.3                   1130.7                   1129.7                   1127.3                   781.61                   928.35                   1127.9                   1132.0                   1131.0                   1128.5                   780.65                   926.19                   1126.7                   1131.0                   1130.0                   1127.5                   786.35                   935.50                   1131.3                   1135.1                   1133.9                   1131.4                   783.18                   929.43                   1127.8                   1132.0                   1130.9                   1128.5                   781.17                   928.69                   1127.8                   1131.9                   1130.8                   1128.4                   763.54                   910.71                   1124.0                   1128.7                   1127.8                   1125.4                   735.64                   851.26                   1107.6                   1116.8                   1117.4                   1115.3
16.000                   3.0000                   1.0000                   6000.0                   4000.0                   70.000                   830.69                   971.07                   1139.0                   1141.5                   1139.9                   1137.3                   822.69                   962.53                   1135.3                   1138.2                   1136.7                   1134.2                   822.28                   962.50                   1135.6                   1138.5                   1137.0                   1134.4                   824.51                   965.06                   1136.7                   1139.5                   1138.0                   1135.4                   823.38                   963.55                   1136.1                   1138.9                   1137.4                   1134.8                   829.48                   970.01                   1139.0                   1141.6                   1140.0                   1137.4                   826.48                   966.42                   1137.2                   1139.9                   1138.4                   1135.8                   823.05                   963.99                   1135.8                   1138.6                   1137.1                   1134.6                   799.00                   944.66                   1128.9                   1132.3                   1131.0                   1128.5                   762.86                   900.19                   1133.7                   1139.1                   1138.3                   1135.8
16.000                   3.0000                   1.0000                   6000.0                   4000.0                   75.000                   880.45                   1004.0                   1147.3                   1148.7                   1146.8                   1144.1                   872.75                   997.93                   1144.8                   1146.5                   1144.6                   1141.9                   872.02                   997.50                   1144.8                   1146.5                   1144.6                   1141.9                   874.52                   999.61                   1145.7                   1147.3                   1145.4                   1142.7                   873.41                   998.59                   1145.4                   1147.0                   1145.1                   1142.4                   878.92                   1002.9                   1147.2                   1148.7                   1146.8                   1144.1                   876.61                   1001.0                   1146.3                   1147.9                   1146.0                   1143.3                   871.77                   997.34                   1144.2                   1145.8                   1144.0                   1141.3                   842.77                   977.07                   1135.1                   1137.3                   1135.7                   1133.1                   798.46                   949.28                   1154.0                   1156.9                   1155.2                   1152.5