% Model:              batchmodel_COIL_N_16_COIL_kr_3_COIL_kh_2_FUNZ_freq_2000_FUNZ_I_eff_2500.mph
% Version:            COMSOL 6.0.0.318
% Date:               Feb 8 2022, 23:49
% Table:              Tabella 1 - GRIGLIA_T
% COIL_N                 COIL_kr                  COIL_kh                  FUNZ_freq                FUNZ_I_eff               Time (s)                 Temperatura (degC), Point: (0, 0)Temperatura (degC), Point: (15, 0)Temperatura (degC), Point: (25.641, 0)Temperatura (degC), Point: (27.821, 0)Temperatura (degC), Point: (29.128, 0)Temperatura (degC), Point: (29.99, 0)Temperatura (degC), Point: (0, 62.5)Temperatura (degC), Point: (15, 62.5)Temperatura (degC), Point: (25.641, 62.5)Temperatura (degC), Point: (27.821, 62.5)Temperatura (degC), Point: (29.128, 62.5)Temperatura (degC), Point: (29.99, 62.5)Temperatura (degC), Point: (0, 125)Temperatura (degC), Point: (15, 125)Temperatura (degC), Point: (25.641, 125)Temperatura (degC), Point: (27.821, 125)Temperatura (degC), Point: (29.128, 125)Temperatura (degC), Point: (29.99, 125)Temperatura (degC), Point: (0, 187.5)Temperatura (degC), Point: (15, 187.5)Temperatura (degC), Point: (25.641, 187.5)Temperatura (degC), Point: (27.821, 187.5)Temperatura (degC), Point: (29.128, 187.5)Temperatura (degC), Point: (29.99, 187.5)Temperatura (degC), Point: (0, 250)Temperatura (degC), Point: (15, 250)Temperatura (degC), Point: (25.641, 250)Temperatura (degC), Point: (27.821, 250)Temperatura (degC), Point: (29.128, 250)Temperatura (degC), Point: (29.99, 250)Temperatura (degC), Point: (0, 312.5)Temperatura (degC), Point: (15, 312.5)Temperatura (degC), Point: (25.641, 312.5)Temperatura (degC), Point: (27.821, 312.5)Temperatura (degC), Point: (29.128, 312.5)Temperatura (degC), Point: (29.99, 312.5)Temperatura (degC), Point: (0, 375)Temperatura (degC), Point: (15, 375)Temperatura (degC), Point: (25.641, 375)Temperatura (degC), Point: (27.821, 375)Temperatura (degC), Point: (29.128, 375)Temperatura (degC), Point: (29.99, 375)Temperatura (degC), Point: (0, 437.5)Temperatura (degC), Point: (15, 437.5)Temperatura (degC), Point: (25.641, 437.5)Temperatura (degC), Point: (27.821, 437.5)Temperatura (degC), Point: (29.128, 437.5)Temperatura (degC), Point: (29.99, 437.5)Temperatura (degC), Point: (0, 468.75)Temperatura (degC), Point: (15, 468.75)Temperatura (degC), Point: (25.641, 468.75)Temperatura (degC), Point: (27.821, 468.75)Temperatura (degC), Point: (29.128, 468.75)Temperatura (degC), Point: (29.99, 468.75)Temperatura (degC), Point: (0, 492.19)Temperatura (degC), Point: (15, 492.19)Temperatura (degC), Point: (25.641, 492.19)Temperatura (degC), Point: (27.821, 492.19)Temperatura (degC), Point: (29.128, 492.19)Temperatura (degC), Point: (29.99, 492.19)
16.000                   3.0000                   2.0000                   2000.0                   2500.0                   0.0000                   20.000                   20.000                   20.000                   20.000                   20.014                   20.101                   20.000                   20.000                   20.000                   20.000                   20.014                   20.101                   20.000                   20.000                   20.000                   20.000                   20.014                   20.101                   20.000                   20.000                   20.000                   20.000                   20.014                   20.101                   20.000                   20.000                   20.000                   20.000                   20.014                   20.101                   20.000                   20.000                   20.000                   20.000                   20.014                   20.101                   20.000                   20.000                   20.000                   20.000                   20.014                   20.101                   20.000                   20.000                   20.000                   20.000                   20.013                   20.099                   20.000                   20.000                   20.000                   20.000                   20.010                   20.092                   20.000                   20.000                   20.000                   20.000                   20.005                   20.067
16.000                   3.0000                   2.0000                   2000.0                   2500.0                   5.0000                   22.649                   31.645                   70.045                   84.352                   93.794                   97.721                   22.651                   31.655                   70.010                   84.336                   93.738                   97.663                   22.655                   31.674                   70.142                   84.534                   93.889                   97.801                   22.660                   31.691                   70.151                   84.536                   93.835                   97.730                   22.670                   31.734                   70.318                   84.681                   93.933                   97.805                   22.665                   31.728                   70.257                   84.607                   93.907                   97.800                   22.656                   31.734                   70.626                   85.113                   94.530                   98.470                   22.610                   31.584                   69.698                   83.627                   92.719                   96.597                   22.303                   30.250                   64.147                   76.598                   84.856                   88.402                   22.105                   28.420                   52.574                   61.459                   66.831                   69.329
16.000                   3.0000                   2.0000                   2000.0                   2500.0                   10.000                   40.872                   62.743                   118.08                   135.23                   145.98                   150.19                   40.877                   62.720                   117.66                   134.66                   145.44                   149.68                   40.886                   62.746                   117.84                   134.89                   145.59                   149.80                   40.919                   62.792                   117.71                   134.66                   145.28                   149.48                   41.008                   63.033                   118.43                   135.40                   146.09                   150.34                   40.868                   62.761                   117.73                   134.66                   145.30                   149.50                   40.861                   62.849                   118.29                   135.46                   146.17                   150.41                   40.153                   61.624                   115.99                   132.54                   143.00                   147.29                   37.495                   56.094                   103.38                   117.90                   127.17                   130.90                   35.500                   50.169                   83.381                   93.209                   99.108                   101.57
16.000                   3.0000                   2.0000                   2000.0                   2500.0                   15.000                   70.204                   99.857                   164.91                   183.99                   195.81                   200.34                   70.315                   100.05                   165.10                   184.04                   195.82                   200.42                   70.211                   99.899                   165.09                   183.99                   195.63                   200.15                   70.293                   100.00                   165.06                   184.09                   195.98                   200.49                   70.495                   100.43                   166.08                   185.02                   196.83                   201.41                   70.007                   99.646                   164.41                   183.30                   195.13                   199.66                   70.050                   99.830                   165.05                   184.16                   195.95                   200.43                   67.983                   96.970                   160.96                   179.29                   190.55                   195.05                   61.334                   86.061                   140.45                   156.08                   165.92                   169.80                   56.298                   75.467                   112.79                   122.80                   128.52                   130.84
16.000                   3.0000                   2.0000                   2000.0                   2500.0                   20.000                   105.90                   140.16                   212.17                   232.90                   245.70                   250.51                   106.26                   140.79                   213.26                   234.00                   246.90                   251.77                   105.90                   140.25                   212.66                   233.24                   245.69                   250.48                   106.09                   140.58                   213.41                   234.41                   247.51                   252.30                   106.36                   141.03                   214.25                   235.12                   248.18                   253.04                   105.34                   139.54                   211.24                   231.91                   245.00                   249.84                   105.41                   139.70                   211.62                   232.25                   244.94                   249.66                   101.46                   134.73                   204.83                   224.51                   236.55                   241.24                   89.898                   117.94                   176.70                   193.31                   203.79                   207.80                   81.152                   102.45                   141.88                   152.05                   157.68                   159.96
16.000                   3.0000                   2.0000                   2000.0                   2500.0                   25.000                   144.88                   182.39                   260.47                   283.01                   296.89                   301.91                   145.57                   183.51                   262.42                   285.09                   299.23                   304.23                   144.85                   182.47                   260.95                   283.20                   296.49                   301.47                   145.26                   183.25                   263.01                   286.09                   300.21                   305.24                   145.48                   183.47                   262.96                   285.72                   299.90                   304.93                   143.86                   181.30                   259.32                   282.01                   296.35                   301.43                   143.85                   181.24                   258.83                   281.00                   294.53                   299.43                   137.65                   173.82                   249.15                   270.37                   283.42                   288.25                   120.83                   151.01                   213.73                   231.38                   242.53                   246.64                   108.28                   130.93                   172.66                   183.34                   189.35                   191.71
16.000                   3.0000                   2.0000                   2000.0                   2500.0                   30.000                   185.47                   225.72                   310.14                   334.79                   350.01                   355.25                   186.41                   227.05                   311.80                   336.36                   351.58                   356.67                   185.38                   225.72                   310.34                   334.62                   349.28                   354.45                   186.04                   226.82                   312.51                   337.33                   352.33                   357.57                   186.15                   226.86                   312.23                   336.75                   351.94                   357.10                   183.99                   224.24                   308.90                   333.85                   349.49                   354.76                   183.78                   223.78                   307.50                   331.72                   346.40                   351.50                   174.96                   213.36                   293.48                   316.24                   330.27                   335.12                   152.84                   184.76                   251.26                   269.98                   281.72                   285.91                   136.60                   160.31                   203.97                   215.06                   221.40                   223.82
16.000                   3.0000                   2.0000                   2000.0                   2500.0                   35.000                   226.27                   268.67                   357.97                   383.99                   400.02                   405.38                   227.19                   269.83                   358.91                   384.69                   400.51                   405.68                   226.36                   269.01                   359.04                   385.08                   400.96                   406.28                   227.05                   270.01                   360.35                   386.31                   401.75                   407.10                   227.00                   269.89                   360.21                   386.20                   402.20                   407.45                   224.45                   266.95                   356.91                   383.46                   400.08                   405.50                   223.80                   265.85                   354.36                   380.10                   395.85                   401.12                   212.19                   252.32                   336.35                   360.36                   375.06                   379.93                   185.26                   218.54                   288.26                   308.04                   320.34                   324.60                   165.49                   189.82                   234.54                   245.85                   252.38                   254.84
16.000                   3.0000                   2.0000                   2000.0                   2500.0                   40.000                   267.08                   311.60                   405.69                   433.03                   449.82                   455.32                   267.98                   312.56                   405.89                   432.84                   449.24                   454.47                   267.36                   312.31                   407.70                   435.48                   452.57                   458.05                   268.07                   313.17                   408.09                   435.15                   451.00                   456.47                   267.87                   312.90                   408.11                   435.54                   452.34                   457.70                   264.93                   309.65                   404.81                   432.93                   450.50                   456.08                   263.83                   307.89                   401.12                   428.33                   445.14                   450.58                   249.42                   291.25                   379.14                   404.37                   419.73                   424.61                   217.70                   252.32                   325.23                   346.07                   358.94                   363.26                   194.42                   219.33                   265.07                   276.57                   283.29                   285.79
16.000                   3.0000                   2.0000                   2000.0                   2500.0                   45.000                   307.01                   353.31                   451.62                   480.22                   497.68                   503.22                   307.72                   353.86                   450.60                   478.54                   495.33                   500.56                   307.30                   353.96                   453.05                   481.81                   499.49                   504.97                   307.99                   354.71                   453.10                   481.03                   497.15                   502.65                   307.51                   354.05                   452.41                   480.70                   497.92                   503.28                   304.54                   350.99                   450.05                   479.40                   497.60                   503.21                   303.03                   348.79                   445.88                   474.18                   491.61                   497.11                   285.55                   328.61                   419.23                   445.24                   460.93                   465.75                   249.45                   284.96                   359.73                   381.01                   394.05                   398.40                   223.36                   248.77                   295.58                   307.37                   314.22                   316.71
16.000                   3.0000                   2.0000                   2000.0                   2500.0                   50.000                   346.53                   394.47                   496.73                   526.56                   544.64                   550.20                   347.00                   394.50                   494.29                   523.13                   540.23                   545.42                   346.77                   394.87                   496.89                   526.29                   544.26                   549.70                   347.41                   395.51                   496.86                   525.56                   541.89                   547.38                   346.60                   394.36                   495.07                   523.96                   541.42                   546.73                   343.74                   391.72                   494.07                   524.51                   543.19                   548.76                   341.85                   389.17                   489.74                   518.94                   536.79                   542.30                   321.18                   365.27                   458.10                   484.67                   500.54                   505.29                   280.90                   317.07                   393.11                   414.54                   427.58                   431.92                   252.30                   278.18                   326.07                   338.22                   345.16                   347.61
16.000                   3.0000                   2.0000                   2000.0                   2500.0                   55.000                   384.96                   434.75                   542.02                   573.86                   592.85                   598.42                   385.20                   434.43                   539.10                   569.94                   588.00                   593.24                   385.15                   434.97                   541.54                   572.74                   591.49                   596.93                   385.71                   435.49                   541.48                   572.16                   589.54                   595.03                   384.63                   433.98                   539.04                   569.76                   588.06                   593.38                   381.93                   431.66                   538.62                   570.83                   590.22                   595.77                   379.65                   428.75                   534.02                   565.01                   583.65                   589.16                   355.98                   401.34                   497.62                   525.48                   541.97                   546.76                   311.84                   348.82                   426.78                   448.92                   462.32                   466.70                   280.61                   306.88                   355.68                   368.20                   375.42                   377.91
16.000                   3.0000                   2.0000                   2000.0                   2500.0                   60.000                   421.95                   473.87                   587.54                   622.40                   642.70                   648.25                   421.99                   473.42                   585.39                   619.69                   639.53                   644.93                   422.10                   474.02                   587.25                   621.78                   641.96                   647.46                   422.53                   474.40                   587.22                   621.46                   640.99                   646.51                   421.26                   472.71                   584.72                   618.88                   638.79                   644.23                   418.78                   470.59                   583.85                   618.74                   639.17                   644.71                   416.11                   467.27                   578.85                   612.81                   632.70                   638.20                   389.70                   436.65                   537.98                   568.09                   585.78                   590.76                   342.10                   380.09                   460.84                   484.41                   498.67                   503.10                   308.10                   334.63                   384.12                   397.04                   404.78                   407.43
16.000                   3.0000                   2.0000                   2000.0                   2500.0                   65.000                   458.50                   512.33                   631.57                   668.97                   690.38                   695.91                   458.36                   511.79                   630.11                   667.33                   688.68                   694.22                   458.63                   512.45                   631.55                   669.00                   690.43                   695.96                   458.91                   512.63                   631.31                   668.50                   689.87                   695.40                   457.47                   510.83                   628.89                   665.97                   687.26                   692.79                   455.23                   508.93                   627.78                   665.05                   686.39                   691.92                   452.17                   505.21                   622.28                   658.75                   679.68                   685.13                   423.15                   471.69                   577.93                   610.21                   629.01                   634.16                   372.21                   411.24                   494.92                   519.89                   534.97                   539.45                   335.57                   362.42                   412.65                   425.91                   434.07                   436.86
16.000                   3.0000                   2.0000                   2000.0                   2500.0                   70.000                   493.01                   547.77                   668.68                   706.47                   728.07                   733.57                   492.81                   547.30                   667.58                   705.28                   726.91                   732.44                   493.18                   548.02                   669.35                   707.81                   729.65                   735.13                   493.24                   547.82                   667.81                   705.09                   726.87                   732.35                   491.79                   546.14                   666.06                   703.63                   725.25                   730.79                   489.79                   544.55                   665.70                   703.95                   725.69                   731.14                   486.35                   540.41                   659.27                   696.13                   717.06                   722.32                   455.38                   505.49                   615.91                   650.00                   669.60                   674.82                   401.61                   441.86                   529.08                   555.34                   571.02                   575.55                   362.98                   390.39                   441.56                   454.90                   463.05                   465.86
16.000                   3.0000                   2.0000                   2000.0                   2500.0                   75.000                   527.53                   583.21                   705.80                   743.96                   765.77                   771.22                   527.27                   582.81                   705.05                   743.24                   765.13                   770.66                   527.73                   583.58                   707.15                   746.62                   768.88                   774.30                   527.56                   583.00                   704.31                   741.69                   763.87                   769.31                   526.10                   581.45                   703.23                   741.30                   763.24                   768.79                   524.34                   580.16                   703.62                   742.85                   764.99                   770.36                   520.53                   575.61                   696.25                   733.51                   754.44                   759.51                   487.60                   539.29                   653.90                   689.80                   710.19                   715.47                   431.01                   472.47                   563.24                   590.78                   607.06                   611.64                   390.39                   418.37                   470.47                   483.88                   492.02                   494.87