% Model:              batchmodel_COIL_N_16_COIL_kr_3_COIL_kh_1_FUNZ_freq_2000_FUNZ_I_eff_4000.mph
% Version:            COMSOL 6.0.0.318
% Date:               Feb 8 2022, 23:25
% Table:              Tabella 1 - GRIGLIA_T
% COIL_N                 COIL_kr                  COIL_kh                  FUNZ_freq                FUNZ_I_eff               Time (s)                 Temperatura (degC), Point: (0, 0)Temperatura (degC), Point: (15, 0)Temperatura (degC), Point: (25.641, 0)Temperatura (degC), Point: (27.821, 0)Temperatura (degC), Point: (29.128, 0)Temperatura (degC), Point: (29.99, 0)Temperatura (degC), Point: (0, 62.5)Temperatura (degC), Point: (15, 62.5)Temperatura (degC), Point: (25.641, 62.5)Temperatura (degC), Point: (27.821, 62.5)Temperatura (degC), Point: (29.128, 62.5)Temperatura (degC), Point: (29.99, 62.5)Temperatura (degC), Point: (0, 125)Temperatura (degC), Point: (15, 125)Temperatura (degC), Point: (25.641, 125)Temperatura (degC), Point: (27.821, 125)Temperatura (degC), Point: (29.128, 125)Temperatura (degC), Point: (29.99, 125)Temperatura (degC), Point: (0, 187.5)Temperatura (degC), Point: (15, 187.5)Temperatura (degC), Point: (25.641, 187.5)Temperatura (degC), Point: (27.821, 187.5)Temperatura (degC), Point: (29.128, 187.5)Temperatura (degC), Point: (29.99, 187.5)Temperatura (degC), Point: (0, 250)Temperatura (degC), Point: (15, 250)Temperatura (degC), Point: (25.641, 250)Temperatura (degC), Point: (27.821, 250)Temperatura (degC), Point: (29.128, 250)Temperatura (degC), Point: (29.99, 250)Temperatura (degC), Point: (0, 312.5)Temperatura (degC), Point: (15, 312.5)Temperatura (degC), Point: (25.641, 312.5)Temperatura (degC), Point: (27.821, 312.5)Temperatura (degC), Point: (29.128, 312.5)Temperatura (degC), Point: (29.99, 312.5)Temperatura (degC), Point: (0, 375)Temperatura (degC), Point: (15, 375)Temperatura (degC), Point: (25.641, 375)Temperatura (degC), Point: (27.821, 375)Temperatura (degC), Point: (29.128, 375)Temperatura (degC), Point: (29.99, 375)Temperatura (degC), Point: (0, 437.5)Temperatura (degC), Point: (15, 437.5)Temperatura (degC), Point: (25.641, 437.5)Temperatura (degC), Point: (27.821, 437.5)Temperatura (degC), Point: (29.128, 437.5)Temperatura (degC), Point: (29.99, 437.5)Temperatura (degC), Point: (0, 468.75)Temperatura (degC), Point: (15, 468.75)Temperatura (degC), Point: (25.641, 468.75)Temperatura (degC), Point: (27.821, 468.75)Temperatura (degC), Point: (29.128, 468.75)Temperatura (degC), Point: (29.99, 468.75)Temperatura (degC), Point: (0, 492.19)Temperatura (degC), Point: (15, 492.19)Temperatura (degC), Point: (25.641, 492.19)Temperatura (degC), Point: (27.821, 492.19)Temperatura (degC), Point: (29.128, 492.19)Temperatura (degC), Point: (29.99, 492.19)
16.000                   3.0000                   1.0000                   2000.0                   4000.0                   0.0000                   20.000                   20.000                   20.000                   20.000                   20.039                   20.171                   20.000                   20.000                   20.000                   20.000                   20.039                   20.171                   20.000                   20.000                   20.000                   20.000                   20.039                   20.171                   20.000                   20.000                   20.000                   20.000                   20.039                   20.171                   20.000                   20.000                   20.000                   20.000                   20.039                   20.171                   20.000                   20.000                   20.000                   20.000                   20.039                   20.171                   20.000                   20.000                   20.000                   20.000                   20.039                   20.171                   20.000                   20.000                   20.000                   20.000                   20.038                   20.169                   20.000                   20.000                   20.000                   20.000                   20.034                   20.160                   20.000                   20.000                   20.000                   20.000                   20.022                   20.128
16.000                   3.0000                   1.0000                   2000.0                   4000.0                   5.0000                   26.215                   46.840                   131.56                   164.32                   186.15                   193.85                   26.201                   46.778                   131.29                   163.90                   185.59                   193.21                   26.225                   46.896                   131.62                   164.17                   185.59                   192.99                   26.213                   46.844                   131.42                   163.76                   184.86                   192.33                   26.233                   46.910                   131.09                   162.84                   183.46                   191.22                   26.222                   46.810                   130.55                   162.36                   183.29                   190.95                   26.285                   47.170                   132.82                   165.48                   186.80                   194.08                   26.140                   46.575                   130.28                   162.14                   182.98                   190.30                   25.737                   44.998                   126.57                   156.48                   176.10                   183.11                   29.936                   45.278                   102.50                   122.86                   135.53                   140.33
16.000                   3.0000                   1.0000                   2000.0                   4000.0                   10.000                   59.730                   109.72                   236.83                   279.01                   305.82                   314.22                   59.634                   109.47                   235.88                   277.65                   304.51                   313.22                   59.731                   109.60                   235.42                   276.74                   302.44                   310.77                   59.615                   109.31                   234.25                   275.04                   300.38                   308.46                   59.536                   108.79                   230.84                   268.50                   293.17                   301.49                   59.621                   109.05                   232.53                   272.01                   296.27                   304.32                   60.106                   110.26                   235.39                   275.71                   301.16                   309.57                   59.032                   107.90                   229.59                   268.80                   293.58                   301.67                   56.684                   102.51                   215.43                   248.41                   269.34                   276.92                   67.770                   102.33                   179.92                   203.23                   217.51                   222.82
16.000                   3.0000                   1.0000                   2000.0                   4000.0                   15.000                   118.44                   185.16                   340.40                   390.66                   420.38                   429.20                   118.13                   184.54                   339.01                   389.13                   418.79                   427.56                   118.02                   183.94                   336.76                   386.41                   415.99                   424.76                   117.66                   183.32                   335.53                   385.00                   414.51                   423.29                   116.96                   181.56                   330.90                   379.93                   409.24                   417.93                   117.48                   182.57                   333.18                   382.33                   411.82                   420.57                   118.58                   184.43                   336.50                   385.95                   415.42                   424.15                   115.67                   179.41                   325.24                   372.08                   400.17                   408.60                   109.52                   167.24                   294.72                   334.60                   359.05                   366.61                   114.96                   158.62                   247.42                   273.16                   289.26                   294.72
16.000                   3.0000                   1.0000                   2000.0                   4000.0                   20.000                   189.11                   265.25                   444.64                   503.85                   537.89                   547.27                   188.53                   264.37                   443.54                   502.74                   536.81                   546.32                   187.92                   263.17                   441.27                   500.39                   534.32                   543.71                   187.24                   262.20                   439.41                   498.01                   531.62                   540.80                   185.70                   259.82                   436.27                   493.94                   528.03                   537.57                   186.75                   261.29                   438.05                   496.14                   529.66                   539.16                   188.27                   263.27                   441.19                   500.36                   534.31                   543.68                   182.82                   254.78                   423.06                   478.07                   509.91                   518.89                   170.88                   234.13                   379.87                   425.60                   452.68                   460.81                   165.23                   214.63                   313.47                   341.88                   359.07                   364.87
16.000                   3.0000                   1.0000                   2000.0                   4000.0                   25.000                   261.49                   345.90                   549.14                   617.29                   654.86                   664.66                   260.73                   344.93                   548.00                   616.11                   653.67                   663.52                   259.74                   343.47                   545.87                   613.86                   651.31                   661.10                   258.79                   342.24                   543.80                   611.39                   648.63                   658.34                   256.79                   339.73                   541.08                   608.31                   645.70                   655.54                   258.16                   341.40                   542.92                   610.33                   647.52                   657.35                   259.72                   343.11                   544.85                   612.51                   649.77                   659.52                   251.36                   330.78                   519.87                   582.20                   616.71                   625.95                   232.77                   301.53                   462.03                   513.43                   542.81                   551.07                   218.04                   271.29                   378.53                   409.54                   428.06                   433.88
16.000                   3.0000                   1.0000                   2000.0                   4000.0                   30.000                   332.47                   422.15                   637.41                   709.88                   748.82                   758.69                   331.69                   421.31                   636.83                   709.67                   748.65                   758.49                   330.54                   419.86                   634.94                   707.44                   746.31                   756.15                   329.43                   418.49                   632.79                   704.96                   743.52                   753.36                   327.36                   416.16                   630.36                   702.89                   741.10                   750.74                   328.81                   417.80                   632.11                   704.64                   743.32                   753.07                   330.08                   419.02                   632.90                   704.68                   743.15                   752.94                   319.07                   404.12                   607.19                   675.15                   711.38                   720.56                   294.00                   367.66                   540.66                   597.01                   628.24                   636.51                   272.37                   328.17                   441.85                   474.86                   494.32                   500.11
16.000                   3.0000                   1.0000                   2000.0                   4000.0                   35.000                   399.65                   492.66                   717.39                   801.34                   844.44                   854.42                   398.96                   492.06                   717.95                   802.94                   846.26                   856.20                   397.75                   490.67                   716.10                   800.58                   844.00                   854.03                   396.55                   489.24                   713.80                   797.67                   840.81                   850.92                   394.54                   487.09                   711.50                   795.77                   838.36                   848.21                   395.98                   488.68                   713.51                   798.29                   841.71                   851.68                   396.91                   489.42                   713.59                   797.06                   840.26                   850.33                   383.67                   472.20                   683.07                   757.36                   797.66                   807.24                   353.22                   430.37                   611.79                   671.50                   703.52                   711.60                   326.68                   384.68                   502.93                   537.11                   556.99                   562.75
16.000                   3.0000                   1.0000                   2000.0                   4000.0                   40.000                   461.83                   556.83                   801.52                   897.27                   941.86                   950.84                   461.26                   556.48                   802.74                   899.40                   944.18                   953.13                   460.07                   555.17                   800.76                   897.13                   942.10                   951.16                   458.85                   553.77                   798.36                   894.33                   939.27                   948.43                   456.93                   551.76                   795.77                   891.98                   936.68                   945.75                   458.35                   553.34                   798.47                   895.23                   940.40                   949.48                   458.94                   553.74                   798.60                   894.67                   939.76                   948.92                   443.66                   534.18                   756.20                   841.64                   885.05                   894.40                   408.85                   487.76                   671.02                   732.14                   765.42                   773.51                   378.11                   437.56                   558.92                   593.90                   613.97                   619.54
16.000                   3.0000                   1.0000                   2000.0                   4000.0                   45.000                   520.38                   616.27                   888.78                   987.70                   1028.1                   1034.7                   519.96                   616.12                   889.80                   988.76                   1029.2                   1035.7                   518.81                   614.91                   887.68                   986.79                   1027.4                   1034.0                   517.59                   613.60                   885.53                   984.94                   1025.7                   1032.5                   515.77                   611.75                   884.20                   984.70                   1025.9                   1032.7                   517.17                   613.34                   886.55                   986.31                   1027.1                   1033.8                   517.49                   613.63                   890.60                   991.86                   1032.4                   1038.8                   500.17                   591.71                   832.03                   927.93                   970.80                   978.88                   461.47                   540.90                   721.63                   784.40                   819.60                   827.72                   426.61                   486.95                   609.89                   645.24                   665.15                   670.33
16.000                   3.0000                   1.0000                   2000.0                   4000.0                   50.000                   574.08                   667.75                   935.44                   1010.5                   1039.3                   1043.0                   573.81                   667.65                   932.23                   1005.1                   1033.5                   1037.3                   572.76                   666.59                   929.73                   1001.9                   1030.3                   1034.1                   571.65                   665.64                   929.12                   1001.1                   1029.3                   1033.1                   570.02                   664.92                   949.05                   1028.9                   1056.3                   1059.0                   571.45                   666.46                   944.55                   1020.0                   1046.6                   1049.5                   571.78                   668.52                   982.24                   1062.1                   1083.8                   1084.6                   552.38                   642.61                   893.58                   976.36                   1011.2                   1016.9                   509.87                   587.83                   765.14                   830.66                   864.41                   871.61                   471.88                   532.08                   650.36                   683.41                   701.77                   706.36
16.000                   3.0000                   1.0000                   2000.0                   4000.0                   55.000                   621.00                   708.75                   950.35                   1007.5                   1030.1                   1032.7                   620.91                   708.61                   943.69                   997.33                   1019.1                   1021.8                   620.07                   708.04                   942.74                   995.28                   1016.5                   1019.1                   619.28                   707.77                   944.01                   995.84                   1016.6                   1019.0                   618.21                   710.07                   987.47                   1046.7                   1063.8                   1064.2                   619.81                   712.19                   989.84                   1046.5                   1062.7                   1062.9                   620.65                   717.14                   1030.9                   1083.0                   1094.5                   1093.2                   599.20                   685.80                   926.20                   991.59                   1018.7                   1022.6                   553.86                   628.42                   805.18                   869.62                   901.30                   907.63                   513.68                   571.89                   682.88                   713.46                   730.56                   734.70
16.000                   3.0000                   1.0000                   2000.0                   4000.0                   60.000                   658.66                   739.89                   958.65                   1005.0                   1023.9                   1025.8                   658.83                   740.06                   953.47                   996.78                   1014.7                   1016.6                   658.38                   740.51                   956.20                   998.63                   1015.7                   1017.4                   658.02                   741.21                   960.03                   1001.9                   1018.4                   1019.8                   658.00                   748.45                   1015.4                   1060.6                   1072.1                   1071.2                   660.01                   752.90                   1026.2                   1068.5                   1078.6                   1077.3                   661.36                   759.89                   1050.5                   1087.9                   1095.4                   1093.2                   638.71                   721.43                   958.92                   1014.1                   1034.9                   1037.0                   591.79                   662.68                   842.39                   904.55                   934.09                   939.57                   550.72                   605.52                   708.82                   737.44                   753.84                   757.68
16.000                   3.0000                   1.0000                   2000.0                   4000.0                   65.000                   689.55                   768.55                   967.33                   1005.5                   1021.1                   1022.4                   689.97                   769.57                   965.55                   1001.5                   1016.2                   1017.3                   689.96                   771.59                   972.30                   1007.8                   1021.5                   1022.3                   690.02                   773.59                   978.53                   1013.7                   1026.6                   1027.1                   691.08                   787.11                   1038.1                   1072.6                   1080.3                   1078.5                   693.44                   795.15                   1053.3                   1084.6                   1090.8                   1088.5                   694.96                   802.25                   1063.1                   1091.2                   1096.1                   1093.4                   673.04                   756.78                   1002.3                   1047.9                   1061.6                   1061.5                   625.38                   692.60                   874.56                   932.64                   959.60                   964.24                   584.05                   635.19                   731.06                   758.61                   774.56                   778.16
16.000                   3.0000                   1.0000                   2000.0                   4000.0                   70.000                   713.85                   797.32                   977.79                   1009.4                   1021.9                   1022.5                   714.52                   799.65                   980.05                   1010.4                   1022.1                   1022.5                   714.92                   803.56                   990.44                   1020.6                   1031.2                   1031.2                   715.34                   806.97                   998.53                   1028.3                   1038.1                   1037.7                   717.46                   826.32                   1056.0                   1082.6                   1087.6                   1085.1                   720.25                   837.92                   1072.4                   1095.6                   1099.0                   1096.1                   721.74                   843.18                   1072.6                   1094.4                   1097.5                   1094.5                   701.88                   796.04                   1045.0                   1079.8                   1087.2                   1085.2                   654.88                   718.55                   900.21                   952.53                   976.54                   980.34                   613.79                   661.26                   750.82                   777.97                   793.54                   796.87
16.000                   3.0000                   1.0000                   2000.0                   4000.0                   75.000                   733.68                   827.15                   990.87                   1017.0                   1026.7                   1026.5                   734.70                   830.96                   996.71                   1022.3                   1031.2                   1030.8                   735.61                   836.65                   1009.6                   1035.1                   1042.9                   1041.9                   736.43                   841.29                   1018.8                   1043.7                   1050.6                   1049.3                   739.94                   864.56                   1069.9                   1090.4                   1093.3                   1090.4                   743.79                   878.70                   1085.3                   1102.6                   1104.2                   1100.8                   745.24                   881.12                   1080.7                   1097.7                   1099.4                   1096.1                   725.92                   839.48                   1076.1                   1100.2                   1103.4                   1100.3                   680.48                   741.62                   920.00                   965.92                   986.90                   989.92                   640.14                   683.98                   769.19                   796.19                   811.27                   814.31