% Model:              batchmodel_COIL_N_16_COIL_kr_1.5_COIL_kh_1.5_FUNZ_freq_2000_FUNZ_I_eff_2500.mph
% Version:            COMSOL 6.0.0.318
% Date:               Feb 8 2022, 21:08
% Table:              Tabella 1 - GRIGLIA_T
% COIL_N                 COIL_kr                  COIL_kh                  FUNZ_freq                FUNZ_I_eff               Time (s)                 Temperatura (degC), Point: (0, 0)Temperatura (degC), Point: (15, 0)Temperatura (degC), Point: (25.641, 0)Temperatura (degC), Point: (27.821, 0)Temperatura (degC), Point: (29.128, 0)Temperatura (degC), Point: (29.99, 0)Temperatura (degC), Point: (0, 62.5)Temperatura (degC), Point: (15, 62.5)Temperatura (degC), Point: (25.641, 62.5)Temperatura (degC), Point: (27.821, 62.5)Temperatura (degC), Point: (29.128, 62.5)Temperatura (degC), Point: (29.99, 62.5)Temperatura (degC), Point: (0, 125)Temperatura (degC), Point: (15, 125)Temperatura (degC), Point: (25.641, 125)Temperatura (degC), Point: (27.821, 125)Temperatura (degC), Point: (29.128, 125)Temperatura (degC), Point: (29.99, 125)Temperatura (degC), Point: (0, 187.5)Temperatura (degC), Point: (15, 187.5)Temperatura (degC), Point: (25.641, 187.5)Temperatura (degC), Point: (27.821, 187.5)Temperatura (degC), Point: (29.128, 187.5)Temperatura (degC), Point: (29.99, 187.5)Temperatura (degC), Point: (0, 250)Temperatura (degC), Point: (15, 250)Temperatura (degC), Point: (25.641, 250)Temperatura (degC), Point: (27.821, 250)Temperatura (degC), Point: (29.128, 250)Temperatura (degC), Point: (29.99, 250)Temperatura (degC), Point: (0, 312.5)Temperatura (degC), Point: (15, 312.5)Temperatura (degC), Point: (25.641, 312.5)Temperatura (degC), Point: (27.821, 312.5)Temperatura (degC), Point: (29.128, 312.5)Temperatura (degC), Point: (29.99, 312.5)Temperatura (degC), Point: (0, 375)Temperatura (degC), Point: (15, 375)Temperatura (degC), Point: (25.641, 375)Temperatura (degC), Point: (27.821, 375)Temperatura (degC), Point: (29.128, 375)Temperatura (degC), Point: (29.99, 375)Temperatura (degC), Point: (0, 437.5)Temperatura (degC), Point: (15, 437.5)Temperatura (degC), Point: (25.641, 437.5)Temperatura (degC), Point: (27.821, 437.5)Temperatura (degC), Point: (29.128, 437.5)Temperatura (degC), Point: (29.99, 437.5)Temperatura (degC), Point: (0, 468.75)Temperatura (degC), Point: (15, 468.75)Temperatura (degC), Point: (25.641, 468.75)Temperatura (degC), Point: (27.821, 468.75)Temperatura (degC), Point: (29.128, 468.75)Temperatura (degC), Point: (29.99, 468.75)Temperatura (degC), Point: (0, 492.19)Temperatura (degC), Point: (15, 492.19)Temperatura (degC), Point: (25.641, 492.19)Temperatura (degC), Point: (27.821, 492.19)Temperatura (degC), Point: (29.128, 492.19)Temperatura (degC), Point: (29.99, 492.19)
16.000                   1.5000                   1.5000                   2000.0                   2500.0                   0.0000                   20.000                   20.000                   20.000                   20.000                   20.011                   20.094                   20.000                   20.000                   20.000                   20.000                   20.011                   20.094                   20.000                   20.000                   20.000                   20.000                   20.011                   20.095                   20.000                   20.000                   20.000                   20.000                   20.012                   20.096                   20.000                   20.000                   20.000                   20.000                   20.012                   20.097                   20.000                   20.000                   20.000                   20.000                   20.013                   20.100                   20.000                   20.000                   20.000                   20.000                   20.014                   20.102                   20.000                   20.000                   20.000                   20.000                   20.015                   20.105                   20.000                   20.000                   20.000                   20.000                   20.015                   20.106                   20.000                   20.000                   20.000                   20.000                   20.013                   20.100
16.000                   1.5000                   1.5000                   2000.0                   2500.0                   5.0000                   23.045                   32.499                   70.164                   83.680                   92.761                   96.506                   23.050                   32.530                   70.672                   84.316                   93.369                   97.271                   23.067                   32.618                   70.903                   84.571                   93.571                   97.361                   23.083                   32.697                   70.958                   84.753                   93.892                   97.720                   23.128                   32.928                   72.415                   86.431                   95.804                   99.715                   23.149                   33.043                   72.856                   87.405                   97.144                   101.14                   23.214                   33.369                   74.355                   89.410                   99.296                   103.42                   23.261                   33.620                   75.552                   90.939                   101.20                   105.37                   23.195                   33.417                   74.920                   90.280                   100.67                   104.91                   23.552                   33.702                   71.743                   85.471                   94.694                   98.567
16.000                   1.5000                   1.5000                   2000.0                   2500.0                   10.000                   40.510                   63.199                   118.51                   134.70                   144.97                   149.00                   40.579                   63.405                   120.42                   137.28                   147.25                   151.35                   40.484                   63.102                   118.45                   134.72                   144.73                   148.73                   40.721                   63.762                   119.94                   136.38                   146.77                   150.90                   40.787                   63.941                   121.24                   137.72                   148.23                   152.39                   40.823                   64.027                   121.32                   138.11                   148.66                   152.92                   41.198                   65.052                   124.59                   142.29                   152.79                   157.21                   41.288                   65.209                   124.23                   142.03                   153.42                   157.81                   40.719                   64.118                   122.25                   140.03                   151.57                   156.05                   41.380                   64.271                   116.96                   132.68                   142.85                   146.93
16.000                   1.5000                   1.5000                   2000.0                   2500.0                   15.000                   69.323                   100.08                   164.55                   182.50                   193.86                   198.21                   69.671                   100.88                   167.88                   187.09                   198.47                   202.70                   69.213                   99.922                   164.70                   182.81                   194.16                   198.40                   69.906                   101.34                   167.78                   186.49                   198.34                   202.81                   69.789                   101.11                   167.84                   186.32                   197.79                   202.13                   69.757                   101.10                   168.04                   186.85                   198.57                   203.02                   70.602                   102.90                   173.05                   193.27                   205.66                   210.31                   70.455                   102.42                   170.53                   189.63                   201.53                   206.09                   68.981                   100.12                   167.04                   186.46                   198.87                   203.51                   69.704                   99.819                   160.01                   177.09                   187.93                   192.11
16.000                   1.5000                   1.5000                   2000.0                   2500.0                   20.000                   105.16                   139.68                   208.47                   227.54                   239.69                   244.19                   105.90                   140.97                   211.37                   231.44                   243.82                   248.14                   105.03                   139.65                   209.13                   228.31                   240.59                   245.08                   106.28                   141.77                   213.33                   233.51                   246.30                   250.96                   105.84                   141.13                   212.94                   232.70                   244.84                   249.30                   105.64                   140.85                   212.26                   232.52                   245.41                   250.02                   107.01                   143.31                   218.10                   239.75                   253.58                   258.22                   106.37                   142.07                   214.60                   234.65                   247.03                   251.66                   103.79                   138.58                   210.37                   231.11                   244.30                   249.06                   104.11                   137.26                   201.52                   219.50                   230.86                   235.09
16.000                   1.5000                   1.5000                   2000.0                   2500.0                   25.000                   143.38                   179.70                   252.18                   272.65                   285.44                   289.95                   144.46                   181.17                   254.20                   274.64                   287.46                   292.00                   143.34                   179.87                   252.93                   273.56                   286.46                   291.02                   144.99                   182.23                   256.67                   277.59                   290.64                   295.21                   144.26                   181.37                   256.04                   277.23                   290.54                   295.22                   143.91                   181.10                   256.48                   278.04                   291.57                   296.31                   145.69                   183.81                   261.17                   283.21                   296.97                   301.79                   144.46                   182.19                   259.33                   281.74                   295.92                   300.82                   140.77                   177.58                   253.87                   276.10                   290.13                   295.03                   140.18                   174.74                   242.20                   261.04                   272.89                   277.16
16.000                   1.5000                   1.5000                   2000.0                   2500.0                   30.000                   182.55                   220.42                   297.37                   319.36                   333.07                   337.73                   183.78                   221.87                   299.14                   321.22                   334.99                   339.68                   182.63                   220.71                   298.18                   320.39                   334.24                   338.94                   184.43                   223.03                   301.56                   324.06                   338.08                   342.83                   183.55                   222.16                   301.22                   324.10                   338.39                   343.19                   183.17                   222.02                   302.09                   325.29                   339.77                   344.66                   185.12                   224.67                   306.20                   329.90                   344.67                   349.62                   183.47                   222.95                   305.19                   329.32                   344.37                   349.42                   178.68                   217.21                   298.21                   322.08                   337.02                   342.05                   176.97                   212.78                   283.50                   303.46                   315.96                   320.31
16.000                   1.5000                   1.5000                   2000.0                   2500.0                   35.000                   221.83                   261.51                   343.36                   366.99                   381.61                   386.41                   223.13                   262.98                   345.11                   368.90                   383.64                   388.48                   222.00                   261.88                   344.14                   368.01                   382.79                   387.61                   223.87                   264.22                   347.66                   371.88                   386.87                   391.76                   222.91                   263.33                   347.39                   371.98                   387.24                   392.14                   222.56                   263.32                   348.45                   373.39                   388.82                   393.83                   224.53                   265.84                   352.20                   377.64                   393.37                   398.44                   222.59                   264.02                   351.56                   377.45                   393.43                   398.60                   216.73                   257.13                   343.19                   368.82                   384.69                   389.84                   213.89                   251.12                   325.33                   346.44                   359.57                   364.00
16.000                   1.5000                   1.5000                   2000.0                   2500.0                   40.000                   260.98                   302.51                   389.23                   414.50                   430.02                   434.92                   262.33                   304.00                   391.00                   416.46                   432.12                   437.10                   261.21                   302.91                   389.89                   415.36                   431.01                   435.94                   263.13                   305.28                   393.61                   419.51                   435.44                   440.45                   262.13                   304.40                   393.42                   419.63                   435.80                   440.79                   261.81                   304.49                   394.61                   421.21                   437.55                   442.67                   263.78                   306.90                   398.14                   425.26                   441.91                   447.08                   261.56                   304.96                   397.61                   425.15                   441.99                   447.27                   254.66                   296.96                   388.06                   415.41                   432.18                   437.43                   250.70                   289.37                   367.05                   389.29                   403.05                   407.53
16.000                   1.5000                   1.5000                   2000.0                   2500.0                   45.000                   299.85                   343.31                   434.83                   461.72                   478.13                   483.09                   301.20                   344.80                   436.72                   463.77                   480.25                   485.31                   300.06                   343.60                   435.16                   462.10                   478.53                   483.52                   301.99                   346.04                   439.22                   466.74                   483.50                   488.59                   301.03                   345.24                   439.10                   466.78                   483.71                   488.74                   300.76                   345.38                   440.29                   468.44                   485.55                   490.74                   302.66                   347.72                   443.94                   472.63                   490.08                   495.33                   300.22                   345.58                   442.93                   471.91                   489.44                   494.79                   292.34                   336.58                   432.64                   461.64                   479.25                   484.57                   287.28                   327.43                   408.56                   431.88                   446.21                   450.70
16.000                   1.5000                   1.5000                   2000.0                   2500.0                   50.000                   338.07                   383.42                   479.55                   507.99                   525.20                   530.20                   339.42                   384.95                   481.67                   510.31                   527.60                   532.72                   338.24                   383.60                   479.63                   508.05                   525.23                   530.25                   340.19                   386.11                   484.02                   513.14                   530.73                   535.88                   339.29                   385.40                   483.99                   513.15                   530.84                   535.90                   339.06                   385.58                   485.14                   514.82                   532.70                   537.94                   340.91                   387.88                   488.99                   519.29                   537.52                   542.82                   338.25                   385.54                   487.51                   517.93                   536.17                   541.57                   329.46                   375.60                   476.52                   507.17                   525.60                   530.97                   323.33                   364.95                   449.45                   473.83                   488.72                   493.20
16.000                   1.5000                   1.5000                   2000.0                   2500.0                   55.000                   374.16                   421.24                   521.36                   551.16                   568.89                   573.86                   375.57                   422.94                   524.12                   554.37                   572.40                   577.53                   374.26                   421.33                   521.45                   551.37                   569.22                   574.22                   376.21                   423.90                   526.13                   556.84                   575.21                   580.36                   375.41                   423.31                   526.24                   556.94                   575.40                   580.48                   375.23                   423.51                   527.27                   558.47                   577.05                   582.30                   377.07                   425.88                   531.58                   563.57                   582.54                   587.86                   374.21                   423.30                   529.60                   561.58                   580.51                   585.93                   364.75                   412.69                   518.10                   550.39                   569.61                   574.99                   357.67                   400.66                   488.31                   513.70                   529.06                   533.52
16.000                   1.5000                   1.5000                   2000.0                   2500.0                   60.000                   410.25                   459.06                   563.17                   594.32                   612.57                   617.52                   411.72                   460.92                   566.56                   598.42                   617.19                   622.34                   410.27                   459.05                   563.28                   594.68                   613.21                   618.19                   412.24                   461.70                   568.24                   600.54                   619.69                   624.85                   411.54                   461.22                   568.49                   600.73                   619.96                   625.06                   411.40                   461.43                   569.40                   602.12                   621.39                   626.65                   413.23                   463.88                   574.17                   607.85                   627.57                   632.90                   410.18                   461.07                   571.69                   605.22                   624.86                   630.30                   400.04                   449.78                   559.68                   593.62                   613.62                   619.01                   392.01                   436.38                   527.17                   553.56                   569.41                   573.83
16.000                   1.5000                   1.5000                   2000.0                   2500.0                   65.000                   446.34                   496.88                   604.98                   637.49                   656.26                   661.18                   447.87                   498.91                   609.01                   642.48                   661.99                   667.15                   446.29                   496.77                   605.11                   638.00                   657.21                   662.17                   448.27                   499.49                   610.34                   644.23                   664.17                   669.34                   447.66                   499.12                   610.74                   644.53                   664.52                   669.64                   447.57                   499.36                   611.53                   645.78                   665.73                   671.01                   449.39                   501.88                   616.77                   652.13                   672.59                   677.94                   446.14                   498.83                   613.79                   648.86                   669.20                   674.66                   435.33                   486.87                   601.26                   636.85                   657.62                   663.03                   426.35                   472.10                   566.03                   593.43                   609.76                   614.14
16.000                   1.5000                   1.5000                   2000.0                   2500.0                   70.000                   481.93                   534.03                   645.81                   679.69                   699.00                   703.90                   483.52                   536.22                   650.43                   685.52                   705.78                   710.95                   481.81                   533.84                   645.96                   680.37                   700.28                   705.22                   483.78                   536.61                   651.40                   686.89                   707.61                   712.79                   483.28                   536.37                   652.00                   687.36                   708.14                   713.28                   483.24                   536.62                   652.68                   688.49                   709.16                   714.45                   485.04                   539.20                   658.33                   695.42                   716.62                   721.98                   481.61                   535.93                   654.91                   691.59                   712.66                   718.13                   470.15                   523.32                   641.84                   679.07                   700.63                   706.04                   460.26                   507.27                   604.06                   632.39                   649.18                   653.52
16.000                   1.5000                   1.5000                   2000.0                   2500.0                   75.000                   511.78                   563.60                   675.36                   710.86                   730.94                   735.83                   513.39                   565.83                   680.05                   716.99                   738.15                   743.29                   511.61                   563.41                   675.67                   711.90                   732.81                   737.77                   513.46                   565.96                   680.54                   717.68                   739.21                   744.34                   513.14                   565.98                   681.90                   719.27                   741.06                   746.17                   513.16                   566.28                   682.67                   720.53                   742.17                   747.44                   514.87                   568.75                   688.19                   727.34                   749.32                   754.66                   511.38                   565.47                   685.02                   723.95                   745.98                   751.42                   499.55                   552.54                   670.98                   709.74                   732.16                   737.55                   489.27                   536.22                   632.67                   661.09                   677.90                   682.12