% Model:              batchmodel_COIL_N_16_COIL_kr_3_COIL_kh_1.5_FUNZ_freq_6000_FUNZ_I_eff_4000.mph
% Version:            COMSOL 6.0.0.318
% Date:               Feb 8 2022, 23:58
% Table:              Tabella 1 - GRIGLIA_T
% COIL_N                 COIL_kr                  COIL_kh                  FUNZ_freq                FUNZ_I_eff               Time (s)                 Temperatura (degC), Point: (0, 0)Temperatura (degC), Point: (15, 0)Temperatura (degC), Point: (27.483, 0)Temperatura (degC), Point: (28.742, 0)Temperatura (degC), Point: (29.497, 0)Temperatura (degC), Point: (29.99, 0)Temperatura (degC), Point: (0, 62.5)Temperatura (degC), Point: (15, 62.5)Temperatura (degC), Point: (27.483, 62.5)Temperatura (degC), Point: (28.742, 62.5)Temperatura (degC), Point: (29.497, 62.5)Temperatura (degC), Point: (29.99, 62.5)Temperatura (degC), Point: (0, 125)Temperatura (degC), Point: (15, 125)Temperatura (degC), Point: (27.483, 125)Temperatura (degC), Point: (28.742, 125)Temperatura (degC), Point: (29.497, 125)Temperatura (degC), Point: (29.99, 125)Temperatura (degC), Point: (0, 187.5)Temperatura (degC), Point: (15, 187.5)Temperatura (degC), Point: (27.483, 187.5)Temperatura (degC), Point: (28.742, 187.5)Temperatura (degC), Point: (29.497, 187.5)Temperatura (degC), Point: (29.99, 187.5)Temperatura (degC), Point: (0, 250)Temperatura (degC), Point: (15, 250)Temperatura (degC), Point: (27.483, 250)Temperatura (degC), Point: (28.742, 250)Temperatura (degC), Point: (29.497, 250)Temperatura (degC), Point: (29.99, 250)Temperatura (degC), Point: (0, 312.5)Temperatura (degC), Point: (15, 312.5)Temperatura (degC), Point: (27.483, 312.5)Temperatura (degC), Point: (28.742, 312.5)Temperatura (degC), Point: (29.497, 312.5)Temperatura (degC), Point: (29.99, 312.5)Temperatura (degC), Point: (0, 375)Temperatura (degC), Point: (15, 375)Temperatura (degC), Point: (27.483, 375)Temperatura (degC), Point: (28.742, 375)Temperatura (degC), Point: (29.497, 375)Temperatura (degC), Point: (29.99, 375)Temperatura (degC), Point: (0, 437.5)Temperatura (degC), Point: (15, 437.5)Temperatura (degC), Point: (27.483, 437.5)Temperatura (degC), Point: (28.742, 437.5)Temperatura (degC), Point: (29.497, 437.5)Temperatura (degC), Point: (29.99, 437.5)Temperatura (degC), Point: (0, 468.75)Temperatura (degC), Point: (15, 468.75)Temperatura (degC), Point: (27.483, 468.75)Temperatura (degC), Point: (28.742, 468.75)Temperatura (degC), Point: (29.497, 468.75)Temperatura (degC), Point: (29.99, 468.75)Temperatura (degC), Point: (0, 492.19)Temperatura (degC), Point: (15, 492.19)Temperatura (degC), Point: (27.483, 492.19)Temperatura (degC), Point: (28.742, 492.19)Temperatura (degC), Point: (29.497, 492.19)Temperatura (degC), Point: (29.99, 492.19)
16.000                   3.0000                   1.5000                   6000.0                   4000.0                   0.0000                   20.000                   20.000                   20.000                   20.000                   20.122                   20.482                   20.000                   20.000                   20.000                   20.000                   20.122                   20.482                   20.000                   20.000                   20.000                   20.000                   20.122                   20.482                   20.000                   20.000                   20.000                   20.000                   20.122                   20.482                   20.000                   20.000                   20.000                   20.000                   20.122                   20.482                   20.000                   20.000                   20.000                   20.000                   20.122                   20.482                   20.000                   20.000                   20.000                   20.000                   20.122                   20.482                   20.000                   20.000                   20.000                   20.000                   20.120                   20.478                   20.000                   20.000                   20.000                   20.000                   20.113                   20.460                   20.000                   20.000                   20.000                   20.000                   20.093                   20.415
16.000                   3.0000                   1.5000                   6000.0                   4000.0                   5.0000                   30.354                   69.875                   295.10                   343.63                   372.70                   381.45                   30.303                   69.723                   294.64                   342.91                   372.13                   381.09                   30.264                   69.458                   291.95                   339.71                   368.69                   377.59                   30.328                   69.823                   294.76                   342.94                   371.96                   380.90                   30.369                   70.034                   295.48                   343.52                   372.34                   381.28                   30.336                   69.830                   293.19                   340.32                   368.66                   377.58                   30.349                   69.912                   294.02                   341.56                   370.26                   379.27                   30.254                   69.478                   290.24                   336.87                   365.05                   373.81                   29.817                   66.938                   274.56                   317.93                   344.14                   352.41                   34.254                   70.335                   240.98                   274.46                   295.14                   302.12
16.000                   3.0000                   1.5000                   6000.0                   4000.0                   10.000                   94.707                   185.59                   523.00                   586.34                   621.29                   631.34                   94.714                   185.78                   524.76                   589.59                   624.78                   634.60                   94.275                   184.48                   517.98                   582.87                   618.52                   628.56                   94.743                   185.83                   526.35                   593.00                   629.35                   639.39                   94.778                   185.78                   525.90                   592.85                   628.83                   638.79                   94.624                   185.65                   527.93                   596.09                   632.62                   642.52                   94.496                   185.17                   522.05                   585.46                   621.74                   632.28                   93.730                   183.88                   523.98                   591.96                   629.31                   639.46                   89.996                   173.95                   477.22                   533.88                   565.82                   575.23                   97.345                   174.50                   421.31                   462.57                   486.96                   494.48
16.000                   3.0000                   1.5000                   6000.0                   4000.0                   15.000                   197.15                   314.63                   736.69                   832.52                   885.20                   898.44                   197.40                   315.18                   739.03                   835.71                   888.47                   901.72                   196.42                   313.42                   737.21                   835.19                   887.12                   900.07                   197.36                   315.28                   744.13                   844.82                   898.25                   911.32                   197.12                   314.76                   743.49                   844.49                   899.25                   912.49                   197.04                   314.95                   745.04                   846.13                   900.86                   914.17                   196.50                   313.76                   738.88                   839.97                   892.67                   905.30                   194.80                   311.42                   731.19                   826.29                   877.52                   890.27                   185.80                   293.72                   667.52                   740.78                   781.30                   792.30                   190.67                   287.48                   586.67                   639.67                   668.51                   676.30
16.000                   3.0000                   1.5000                   6000.0                   4000.0                   20.000                   304.10                   433.25                   911.15                   1005.0                   1042.5                   1049.5                   304.57                   434.13                   919.10                   1013.8                   1050.7                   1057.4                   303.46                   432.84                   914.36                   1008.8                   1046.1                   1052.9                   304.71                   435.20                   923.40                   1016.0                   1051.8                   1058.1                   304.27                   435.50                   1018.6                   1110.4                   1134.2                   1136.5                   304.21                   434.03                   881.99                   963.44                   999.14                   1006.5                   303.36                   433.25                   897.55                   978.97                   1013.3                   1020.1                   300.67                   429.85                   890.23                   975.22                   1011.7                   1019.0                   286.75                   405.69                   814.86                   905.58                   948.33                   957.81                   286.51                   392.36                   693.93                   744.24                   772.32                   779.64
16.000                   3.0000                   1.5000                   6000.0                   4000.0                   25.000                   402.25                   533.86                   1110.1                   1158.0                   1168.5                   1167.9                   402.97                   535.58                   1114.4                   1160.3                   1170.1                   1169.5                   402.12                   534.29                   1065.3                   1116.7                   1128.7                   1128.8                   403.56                   535.74                   1076.6                   1128.0                   1139.8                   1139.8                   403.87                   541.98                   1136.5                   1173.7                   1181.1                   1179.9                   402.93                   532.05                   915.30                   963.23                   984.48                   988.68                   402.28                   533.55                   953.78                   1002.9                   1021.3                   1024.2                   398.96                   529.31                   909.28                   953.01                   972.21                   976.00                   380.53                   500.63                   891.85                   958.72                   989.16                   995.49                   372.88                   478.51                   762.05                   812.63                   839.86                   846.47
16.000                   3.0000                   1.5000                   6000.0                   4000.0                   30.000                   484.93                   614.71                   1133.0                   1161.0                   1166.2                   1164.7                   485.90                   616.83                   1135.9                   1162.7                   1167.6                   1166.1                   485.27                   614.88                   1103.6                   1133.8                   1140.1                   1139.0                   486.49                   614.76                   1105.9                   1136.8                   1143.1                   1142.0                   488.25                   624.88                   1140.9                   1164.3                   1168.3                   1166.5                   485.72                   608.20                   951.83                   984.93                   998.86                   1001.2                   485.55                   611.06                   1004.3                   1041.8                   1053.7                   1054.7                   482.38                   606.64                   944.54                   976.24                   989.92                   992.32                   460.40                   576.60                   947.61                   999.24                   1021.2                   1025.1                   446.92                   547.90                   827.19                   877.73                   903.41                   909.26
16.000                   3.0000                   1.5000                   6000.0                   4000.0                   35.000                   556.30                   679.85                   1129.6                   1148.9                   1152.0                   1150.2                   557.44                   682.01                   1132.3                   1150.9                   1153.7                   1151.9                   556.91                   679.76                   1114.2                   1134.9                   1138.6                   1137.0                   557.80                   678.39                   1106.1                   1127.6                   1131.5                   1130.0                   560.72                   690.17                   1133.9                   1150.6                   1152.9                   1150.9                   556.92                   670.50                   1000.5                   1027.6                   1036.8                   1037.4                   557.05                   673.71                   1045.4                   1073.4                   1080.8                   1080.5                   554.39                   669.32                   986.95                   1012.6                   1022.2                   1023.3                   530.06                   641.45                   1040.9                   1080.6                   1091.2                   1091.3                   511.31                   606.34                   881.13                   926.19                   948.31                   953.02
16.000                   3.0000                   1.5000                   6000.0                   4000.0                   40.000                   612.86                   728.53                   1118.0                   1133.2                   1135.2                   1133.3                   613.96                   730.49                   1121.1                   1135.7                   1137.6                   1135.7                   613.50                   728.44                   1111.8                   1127.7                   1130.0                   1128.2                   614.10                   726.25                   1100.1                   1116.8                   1119.4                   1117.8                   617.45                   738.99                   1125.4                   1138.5                   1139.9                   1137.8                   613.33                   719.15                   1049.1                   1070.5                   1075.8                   1075.0                   613.46                   721.94                   1070.7                   1091.0                   1095.5                   1094.4                   611.45                   717.95                   1035.8                   1057.3                   1063.2                   1062.8                   587.62                   694.73                   1087.7                   1112.2                   1117.0                   1115.8                   564.88                   652.77                   913.67                   950.81                   968.98                   972.66
16.000                   3.0000                   1.5000                   6000.0                   4000.0                   45.000                   659.49                   770.72                   1110.0                   1122.1                   1123.4                   1121.5                   660.45                   772.91                   1112.5                   1124.2                   1125.4                   1123.4                   660.08                   771.02                   1108.0                   1120.3                   1121.7                   1119.8                   660.48                   768.60                   1100.2                   1113.1                   1114.8                   1113.0                   663.84                   781.96                   1118.1                   1128.6                   1129.4                   1127.3                   659.91                   762.69                   1080.4                   1095.4                   1098.0                   1096.5                   659.96                   764.84                   1087.9                   1102.3                   1104.7                   1103.1                   658.53                   761.37                   1073.5                   1089.2                   1092.1                   1090.6                   636.73                   741.23                   1106.0                   1121.7                   1123.9                   1122.2                   611.22                   692.29                   939.65                   969.89                   984.61                   987.40
16.000                   3.0000                   1.5000                   6000.0                   4000.0                   50.000                   697.15                   811.93                   1109.8                   1119.4                   1120.0                   1118.0                   697.88                   814.54                   1111.5                   1120.8                   1121.4                   1119.3                   697.60                   813.08                   1109.6                   1119.1                   1119.8                   1117.7                   697.88                   811.16                   1105.6                   1115.5                   1116.3                   1114.3                   700.85                   823.62                   1116.6                   1125.1                   1125.3                   1123.1                   697.55                   807.05                   1098.8                   1109.5                   1110.5                   1108.5                   697.50                   808.30                   1101.1                   1111.5                   1112.5                   1110.5                   696.61                   805.65                   1095.8                   1106.7                   1107.9                   1106.0                   677.82                   784.98                   1113.4                   1124.4                   1125.3                   1123.3                   650.90                   725.92                   965.40                   989.94                   1001.5                   1003.4
16.000                   3.0000                   1.5000                   6000.0                   4000.0                   55.000                   723.53                   853.15                   1115.2                   1122.6                   1122.6                   1120.4                   724.07                   855.38                   1116.2                   1123.5                   1123.4                   1121.2                   723.83                   854.38                   1115.4                   1122.8                   1122.7                   1120.5                   724.12                   853.53                   1113.5                   1121.0                   1121.0                   1118.8                   726.70                   863.31                   1120.3                   1126.9                   1126.7                   1124.4                   723.93                   851.35                   1110.9                   1118.6                   1118.7                   1116.6                   723.77                   851.63                   1111.8                   1119.5                   1119.6                   1117.4                   723.21                   850.04                   1109.1                   1117.0                   1117.2                   1115.0                   708.68                   828.79                   1117.9                   1126.2                   1126.4                   1124.2                   683.17                   757.42                   1001.4                   1022.6                   1030.7                   1031.3
16.000                   3.0000                   1.5000                   6000.0                   4000.0                   60.000                   748.81                   892.92                   1122.1                   1127.7                   1127.1                   1124.8                   749.35                   894.72                   1122.8                   1128.3                   1127.7                   1125.3                   749.07                   894.04                   1122.5                   1128.0                   1127.4                   1125.0                   749.60                   894.16                   1121.7                   1127.3                   1126.7                   1124.3                   752.30                   901.16                   1125.8                   1130.9                   1130.1                   1127.7                   749.55                   893.30                   1120.9                   1126.5                   1126.0                   1123.6                   749.17                   892.84                   1121.2                   1126.8                   1126.2                   1123.9                   748.76                   891.91                   1119.5                   1125.2                   1124.7                   1122.3                   733.82                   869.55                   1120.9                   1127.3                   1126.9                   1124.6                   709.28                   794.82                   1051.1                   1067.3                   1071.5                   1070.7
16.000                   3.0000                   1.5000                   6000.0                   4000.0                   65.000                   781.17                   930.91                   1130.0                   1134.0                   1132.8                   1130.4                   781.99                   932.29                   1130.4                   1134.4                   1133.2                   1130.7                   781.60                   931.80                   1130.3                   1134.2                   1133.1                   1130.6                   782.66                   932.63                   1130.2                   1134.1                   1133.0                   1130.5                   785.58                   937.21                   1132.6                   1136.3                   1135.1                   1132.5                   782.79                   932.54                   1130.1                   1134.0                   1132.9                   1130.4                   781.94                   931.58                   1130.0                   1134.0                   1132.9                   1130.4                   781.47                   930.84                   1128.6                   1132.6                   1131.5                   1129.0                   760.31                   907.09                   1124.5                   1129.3                   1128.5                   1126.0                   731.60                   838.20                   1093.5                   1104.4                   1105.7                   1103.8
16.000                   3.0000                   1.5000                   6000.0                   4000.0                   70.000                   823.76                   966.98                   1138.3                   1141.0                   1139.4                   1136.8                   824.93                   968.03                   1138.6                   1141.3                   1139.7                   1137.1                   824.40                   967.61                   1138.5                   1141.2                   1139.6                   1137.0                   826.15                   968.88                   1138.8                   1141.4                   1139.9                   1137.2                   828.88                   971.58                   1140.2                   1142.7                   1141.1                   1138.4                   826.44                   969.12                   1139.0                   1141.6                   1140.0                   1137.4                   824.96                   967.87                   1138.7                   1141.3                   1139.8                   1137.2                   824.21                   966.92                   1137.2                   1139.9                   1138.4                   1135.8                   793.92                   941.85                   1129.3                   1132.8                   1131.6                   1129.0                   755.00                   885.67                   1122.9                   1129.3                   1128.8                   1126.5
16.000                   3.0000                   1.5000                   6000.0                   4000.0                   75.000                   874.11                   1000.7                   1147.2                   1148.8                   1146.8                   1144.1                   875.37                   1001.6                   1147.4                   1149.0                   1147.1                   1144.3                   874.73                   1001.2                   1147.3                   1148.9                   1147.0                   1144.3                   876.98                   1002.7                   1147.8                   1149.3                   1147.4                   1144.6                   878.87                   1004.1                   1148.5                   1150.0                   1148.0                   1145.3                   877.33                   1003.0                   1148.0                   1149.5                   1147.6                   1144.9                   875.37                   1001.6                   1147.6                   1149.2                   1147.2                   1144.5                   874.06                   1000.1                   1145.9                   1147.5                   1145.6                   1142.9                   837.16                   974.25                   1135.4                   1137.8                   1136.2                   1133.6                   786.72                   933.78                   1144.3                   1147.8                   1146.4                   1143.8