% Model:              batchmodel_COIL_N_16_COIL_kr_1.5_COIL_kh_1.5_FUNZ_freq_6000_FUNZ_I_eff_4000.mph
% Version:            COMSOL 6.0.0.318
% Date:               Feb 8 2022, 21:29
% Table:              Tabella 1 - GRIGLIA_T
% COIL_N                 COIL_kr                  COIL_kh                  FUNZ_freq                FUNZ_I_eff               Time (s)                 Temperatura (degC), Point: (0, 0)Temperatura (degC), Point: (15, 0)Temperatura (degC), Point: (27.483, 0)Temperatura (degC), Point: (28.742, 0)Temperatura (degC), Point: (29.497, 0)Temperatura (degC), Point: (29.99, 0)Temperatura (degC), Point: (0, 62.5)Temperatura (degC), Point: (15, 62.5)Temperatura (degC), Point: (27.483, 62.5)Temperatura (degC), Point: (28.742, 62.5)Temperatura (degC), Point: (29.497, 62.5)Temperatura (degC), Point: (29.99, 62.5)Temperatura (degC), Point: (0, 125)Temperatura (degC), Point: (15, 125)Temperatura (degC), Point: (27.483, 125)Temperatura (degC), Point: (28.742, 125)Temperatura (degC), Point: (29.497, 125)Temperatura (degC), Point: (29.99, 125)Temperatura (degC), Point: (0, 187.5)Temperatura (degC), Point: (15, 187.5)Temperatura (degC), Point: (27.483, 187.5)Temperatura (degC), Point: (28.742, 187.5)Temperatura (degC), Point: (29.497, 187.5)Temperatura (degC), Point: (29.99, 187.5)Temperatura (degC), Point: (0, 250)Temperatura (degC), Point: (15, 250)Temperatura (degC), Point: (27.483, 250)Temperatura (degC), Point: (28.742, 250)Temperatura (degC), Point: (29.497, 250)Temperatura (degC), Point: (29.99, 250)Temperatura (degC), Point: (0, 312.5)Temperatura (degC), Point: (15, 312.5)Temperatura (degC), Point: (27.483, 312.5)Temperatura (degC), Point: (28.742, 312.5)Temperatura (degC), Point: (29.497, 312.5)Temperatura (degC), Point: (29.99, 312.5)Temperatura (degC), Point: (0, 375)Temperatura (degC), Point: (15, 375)Temperatura (degC), Point: (27.483, 375)Temperatura (degC), Point: (28.742, 375)Temperatura (degC), Point: (29.497, 375)Temperatura (degC), Point: (29.99, 375)Temperatura (degC), Point: (0, 437.5)Temperatura (degC), Point: (15, 437.5)Temperatura (degC), Point: (27.483, 437.5)Temperatura (degC), Point: (28.742, 437.5)Temperatura (degC), Point: (29.497, 437.5)Temperatura (degC), Point: (29.99, 437.5)Temperatura (degC), Point: (0, 468.75)Temperatura (degC), Point: (15, 468.75)Temperatura (degC), Point: (27.483, 468.75)Temperatura (degC), Point: (28.742, 468.75)Temperatura (degC), Point: (29.497, 468.75)Temperatura (degC), Point: (29.99, 468.75)Temperatura (degC), Point: (0, 492.19)Temperatura (degC), Point: (15, 492.19)Temperatura (degC), Point: (27.483, 492.19)Temperatura (degC), Point: (28.742, 492.19)Temperatura (degC), Point: (29.497, 492.19)Temperatura (degC), Point: (29.99, 492.19)
16.000                   1.5000                   1.5000                   6000.0                   4000.0                   0.0000                   20.000                   20.000                   20.000                   20.000                   20.093                   20.414                   20.000                   20.000                   20.000                   20.000                   20.094                   20.416                   20.000                   20.000                   20.000                   20.000                   20.097                   20.423                   20.000                   20.000                   20.000                   20.000                   20.101                   20.433                   20.000                   20.000                   20.000                   20.000                   20.108                   20.448                   20.000                   20.000                   20.000                   20.000                   20.115                   20.465                   20.000                   20.000                   20.000                   20.000                   20.124                   20.486                   20.000                   20.000                   20.000                   20.000                   20.133                   20.507                   20.000                   20.000                   20.000                   20.000                   20.138                   20.517                   20.000                   20.000                   20.000                   20.000                   20.164                   20.577
16.000                   1.5000                   1.5000                   6000.0                   4000.0                   5.0000                   31.667                   70.186                   285.53                   331.33                   359.34                   368.05                   31.724                   70.486                   287.28                   333.24                   361.36                   370.15                   31.750                   70.777                   290.96                   337.94                   366.58                   375.41                   31.881                   71.488                   295.29                   343.24                   372.34                   381.31                   32.033                   72.322                   301.06                   350.36                   380.29                   389.44                   32.251                   73.500                   309.93                   361.00                   391.68                   401.01                   32.417                   74.462                   317.10                   370.33                   402.18                   411.71                   32.669                   75.804                   326.64                   382.05                   415.16                   425.00                   32.780                   76.320                   330.18                   386.11                   419.24                   429.13                   37.246                   86.561                   349.48                   406.64                   440.17                   450.01
16.000                   1.5000                   1.5000                   6000.0                   4000.0                   10.000                   100.27                   193.86                   550.03                   622.01                   662.05                   672.86                   100.49                   194.14                   547.13                   616.41                   654.35                   664.85                   100.84                   195.63                   560.62                   634.63                   674.77                   685.48                   101.30                   196.47                   559.83                   632.75                   672.64                   683.49                   101.85                   198.05                   568.67                   644.49                   686.78                   697.99                   102.80                   200.51                   580.95                   659.59                   702.10                   713.39                   103.57                   202.58                   589.99                   671.03                   715.75                   727.66                   104.45                   204.70                   598.32                   680.15                   725.35                   737.33                   105.04                   205.62                   602.62                   685.03                   729.67                   741.56                   123.23                   228.39                   615.30                   695.24                   737.37                   748.36
16.000                   1.5000                   1.5000                   6000.0                   4000.0                   15.000                   208.78                   327.60                   715.54                   789.19                   828.90                   838.64                   208.86                   327.52                   715.31                   789.10                   828.94                   838.72                   209.71                   329.48                   721.69                   797.08                   837.30                   847.10                   210.17                   330.07                   722.78                   798.68                   839.11                   848.94                   210.90                   332.12                   735.35                   815.92                   857.63                   867.62                   212.26                   334.89                   746.31                   829.97                   872.28                   882.30                   213.44                   337.52                   759.22                   846.45                   889.52                   899.60                   214.47                   339.85                   772.14                   862.70                   906.53                   916.59                   215.32                   340.65                   791.25                   892.70                   940.36                   950.98                   234.59                   362.20                   781.15                   870.31                   913.58                   923.41
16.000                   1.5000                   1.5000                   6000.0                   4000.0                   20.000                   316.82                   438.54                   791.33                   855.38                   887.26                   894.70                   316.77                   438.51                   792.20                   856.59                   888.61                   896.08                   317.84                   440.31                   796.47                   860.92                   892.85                   900.26                   318.44                   441.12                   798.35                   863.25                   895.37                   902.80                   319.46                   443.96                   808.63                   873.73                   905.62                   912.92                   321.21                   447.47                   816.50                   880.91                   912.26                   919.35                   322.89                   451.30                   828.20                   892.11                   922.82                   929.66                   324.33                   455.17                   841.79                   904.63                   934.22                   940.70                   324.91                   458.06                   895.58                   961.91                   988.83                   993.98                   341.62                   473.57                   855.33                   911.27                   936.99                   942.67
16.000                   1.5000                   1.5000                   6000.0                   4000.0                   25.000                   408.93                   522.78                   848.08                   903.61                   930.71                   936.71                   408.88                   522.93                   849.34                   905.03                   932.17                   938.17                   410.14                   524.80                   851.86                   907.07                   933.93                   939.84                   411.07                   526.27                   854.61                   909.84                   936.64                   942.52                   412.62                   529.98                   862.89                   916.96                   942.97                   948.62                   415.04                   534.79                   872.71                   925.15                   950.10                   955.45                   417.52                   540.33                   890.54                   941.14                   964.72                   969.66                   419.78                   546.12                   915.52                   964.87                   986.65                   990.94                   420.81                   553.83                   1000.2                   1047.1                   1062.0                   1063.6                   434.57                   563.47                   939.27                   982.80                   999.90                   1002.7
16.000                   1.5000                   1.5000                   6000.0                   4000.0                   30.000                   486.43                   590.92                   887.63                   933.10                   955.09                   959.76                   486.44                   591.24                   889.17                   934.62                   956.57                   961.22                   487.91                   593.41                   891.92                   936.61                   958.16                   962.69                   489.23                   595.64                   896.69                   940.86                   962.05                   966.48                   491.40                   600.33                   908.30                   950.67                   970.69                   974.78                   494.55                   606.51                   927.44                   968.10                   986.67                   990.29                   497.87                   613.65                   959.51                   999.99                   1016.6                   1019.3                   500.95                   620.88                   998.15                   1038.1                   1051.7                   1053.1                   502.90                   632.00                   1073.8                   1105.2                   1112.9                   1112.4                   514.76                   637.73                   1019.0                   1052.5                   1062.6                   1063.0
16.000                   1.5000                   1.5000                   6000.0                   4000.0                   35.000                   554.05                   648.21                   915.38                   950.72                   967.85                   971.31                   554.13                   648.72                   917.45                   952.63                   969.63                   973.05                   555.82                   651.31                   922.71                   957.03                   973.48                   976.73                   557.50                   654.36                   931.84                   965.29                   981.08                   984.13                   560.24                   660.11                   952.63                   984.91                   999.30                   1001.8                   564.01                   667.60                   985.66                   1018.2                   1030.5                   1032.1                   568.05                   676.09                   1029.1                   1060.9                   1070.4                   1070.7                   571.74                   684.37                   1067.6                   1095.7                   1102.5                   1101.8                   574.54                   697.16                   1115.3                   1135.8                   1139.5                   1137.9                   585.23                   701.35                   1090.6                   1112.7                   1117.2                   1115.8
16.000                   1.5000                   1.5000                   6000.0                   4000.0                   40.000                   612.01                   695.76                   937.86                   964.42                   977.18                   979.55                   612.16                   696.44                   941.02                   967.37                   979.95                   982.25                   613.99                   699.48                   951.07                   976.74                   988.66                   990.74                   615.92                   703.32                   967.54                   993.17                   1004.3                   1006.0                   619.06                   710.09                   999.75                   1025.9                   1035.4                   1036.2                   623.20                   718.78                   1040.4                   1065.7                   1072.9                   1072.6                   627.65                   728.63                   1080.9                   1102.6                   1107.2                   1106.0                   631.66                   738.11                   1108.2                   1126.4                   1129.5                   1127.9                   634.92                   752.08                   1134.4                   1148.3                   1150.0                   1148.0                   645.05                   760.02                   1145.9                   1158.4                   1159.5                   1157.2
16.000                   1.5000                   1.5000                   6000.0                   4000.0                   45.000                   659.90                   734.74                   961.85                   981.56                   990.59                   991.94                   660.11                   735.60                   966.64                   986.30                   995.15                   996.42                   661.98                   739.34                   982.37                   1002.2                   1010.5                   1011.4                   664.03                   744.45                   1006.0                   1026.7                   1034.1                   1034.4                   667.34                   753.09                   1042.8                   1063.5                   1069.2                   1068.6                   671.56                   764.15                   1079.2                   1097.1                   1100.8                   1099.5                   676.09                   776.87                   1109.0                   1123.3                   1125.4                   1123.6                   680.06                   788.57                   1128.1                   1140.3                   1141.6                   1139.5                   683.34                   803.71                   1143.2                   1153.2                   1153.7                   1151.4                   693.31                   825.27                   1181.9                   1189.4                   1189.0                   1186.3
16.000                   1.5000                   1.5000                   6000.0                   4000.0                   50.000                   697.87                   771.24                   992.68                   1007.7                   1013.5                   1013.8                   698.11                   772.61                   998.83                   1014.2                   1019.9                   1020.1                   699.87                   777.74                   1017.7                   1033.9                   1039.2                   1038.9                   701.86                   784.94                   1042.6                   1059.0                   1063.4                   1062.6                   705.03                   796.51                   1074.0                   1088.8                   1091.7                   1090.3                   708.92                   810.67                   1101.1                   1113.3                   1114.9                   1113.1                   713.02                   826.38                   1122.8                   1132.6                   1133.3                   1131.2                   716.53                   839.88                   1137.9                   1146.4                   1146.6                   1144.3                   719.38                   854.35                   1148.1                   1155.4                   1155.1                   1152.7                   729.66                   898.05                   1207.4                   1212.4                   1211.1                   1208.2
16.000                   1.5000                   1.5000                   6000.0                   4000.0                   55.000                   725.97                   812.52                   1032.0                   1044.2                   1047.4                   1046.6                   726.19                   814.49                   1037.3                   1049.7                   1052.9                   1051.9                   727.82                   820.97                   1052.9                   1065.3                   1068.0                   1066.8                   729.74                   829.76                   1071.8                   1083.4                   1085.4                   1083.8                   732.79                   843.19                   1093.7                   1103.5                   1104.6                   1102.7                   736.49                   858.71                   1113.2                   1121.4                   1121.7                   1119.5                   740.48                   875.15                   1130.0                   1136.8                   1136.6                   1134.2                   743.98                   888.77                   1143.0                   1149.0                   1148.4                   1145.9                   746.66                   901.00                   1151.3                   1156.6                   1155.7                   1153.1                   761.60                   967.67                   1228.2                   1231.7                   1229.8                   1226.7
16.000                   1.5000                   1.5000                   6000.0                   4000.0                   60.000                   748.06                   859.52                   1069.9                   1079.1                   1080.2                   1078.5                   748.26                   861.55                   1072.9                   1081.8                   1082.8                   1081.1                   750.11                   868.21                   1081.9                   1090.1                   1090.7                   1088.8                   752.43                   877.00                   1093.4                   1100.7                   1100.9                   1098.9                   756.16                   889.92                   1107.6                   1113.8                   1113.6                   1111.4                   760.90                   904.54                   1121.9                   1127.3                   1126.6                   1124.3                   766.40                   919.79                   1135.6                   1140.2                   1139.2                   1136.7                   771.53                   932.50                   1147.3                   1151.4                   1150.2                   1147.6                   775.33                   943.03                   1155.2                   1158.8                   1157.4                   1154.8                   808.47                   1028.3                   1247.4                   1249.7                   1247.5                   1244.2
16.000                   1.5000                   1.5000                   6000.0                   4000.0                   65.000                   772.67                   908.00                   1096.0                   1101.4                   1100.9                   1098.7                   773.12                   909.63                   1097.6                   1102.8                   1102.3                   1100.1                   776.01                   915.46                   1102.8                   1107.5                   1106.8                   1104.6                   779.75                   923.16                   1110.2                   1114.5                   1113.7                   1111.3                   785.64                   934.22                   1120.2                   1124.0                   1122.9                   1120.5                   793.12                   946.87                   1131.4                   1134.8                   1133.5                   1130.9                   801.83                   960.18                   1143.0                   1145.9                   1144.4                   1141.8                   809.86                   971.60                   1153.6                   1156.3                   1154.6                   1151.9                   816.19                   981.79                   1161.9                   1164.3                   1162.5                   1159.8                   880.78                   1080.1                   1266.9                   1268.3                   1265.7                   1262.3
16.000                   1.5000                   1.5000                   6000.0                   4000.0                   70.000                   809.54                   953.68                   1113.9                   1116.5                   1115.1                   1112.6                   810.36                   954.88                   1115.0                   1117.6                   1116.1                   1113.7                   814.48                   959.71                   1118.8                   1121.3                   1119.8                   1117.3                   819.78                   966.16                   1124.7                   1127.0                   1125.4                   1122.8                   827.85                   975.31                   1132.7                   1134.8                   1133.0                   1130.4                   837.85                   986.00                   1142.1                   1144.0                   1142.1                   1139.4                   849.12                   997.47                   1152.3                   1154.0                   1152.0                   1149.3                   859.24                   1007.7                   1162.2                   1163.8                   1161.7                   1158.9                   868.57                   1018.7                   1171.7                   1173.0                   1170.9                   1168.0                   960.24                   1125.1                   1287.2                   1287.9                   1285.0                   1281.4
16.000                   1.5000                   1.5000                   6000.0                   4000.0                   75.000                   863.24                   994.83                   1128.0                   1129.0                   1127.0                   1124.4                   864.24                   995.79                   1129.0                   1130.0                   1128.0                   1125.4                   868.73                   999.86                   1132.6                   1133.5                   1131.5                   1128.8                   874.44                   1005.4                   1137.9                   1138.8                   1136.7                   1133.9                   882.89                   1013.1                   1145.1                   1145.9                   1143.7                   1140.9                   893.12                   1022.2                   1153.7                   1154.4                   1152.1                   1149.3                   904.44                   1032.2                   1163.2                   1163.8                   1161.5                   1158.7                   914.44                   1041.3                   1172.6                   1173.3                   1171.0                   1168.0                   926.51                   1054.0                   1184.1                   1184.5                   1182.1                   1179.1                   1030.0                   1164.7                   1308.5                   1308.4                   1305.2                   1301.4