% Model:              batchmodel_COIL_N_16_COIL_kr_2.25_COIL_kh_1.5_FUNZ_freq_6000_FUNZ_I_eff_2500.mph
% Version:            COMSOL 6.0.0.318
% Date:               Feb 8 2022, 22:38
% Table:              Tabella 1 - GRIGLIA_T
% COIL_N                 COIL_kr                  COIL_kh                  FUNZ_freq                FUNZ_I_eff               Time (s)                 Temperatura (degC), Point: (0, 0)Temperatura (degC), Point: (15, 0)Temperatura (degC), Point: (27.483, 0)Temperatura (degC), Point: (28.742, 0)Temperatura (degC), Point: (29.497, 0)Temperatura (degC), Point: (29.99, 0)Temperatura (degC), Point: (0, 62.5)Temperatura (degC), Point: (15, 62.5)Temperatura (degC), Point: (27.483, 62.5)Temperatura (degC), Point: (28.742, 62.5)Temperatura (degC), Point: (29.497, 62.5)Temperatura (degC), Point: (29.99, 62.5)Temperatura (degC), Point: (0, 125)Temperatura (degC), Point: (15, 125)Temperatura (degC), Point: (27.483, 125)Temperatura (degC), Point: (28.742, 125)Temperatura (degC), Point: (29.497, 125)Temperatura (degC), Point: (29.99, 125)Temperatura (degC), Point: (0, 187.5)Temperatura (degC), Point: (15, 187.5)Temperatura (degC), Point: (27.483, 187.5)Temperatura (degC), Point: (28.742, 187.5)Temperatura (degC), Point: (29.497, 187.5)Temperatura (degC), Point: (29.99, 187.5)Temperatura (degC), Point: (0, 250)Temperatura (degC), Point: (15, 250)Temperatura (degC), Point: (27.483, 250)Temperatura (degC), Point: (28.742, 250)Temperatura (degC), Point: (29.497, 250)Temperatura (degC), Point: (29.99, 250)Temperatura (degC), Point: (0, 312.5)Temperatura (degC), Point: (15, 312.5)Temperatura (degC), Point: (27.483, 312.5)Temperatura (degC), Point: (28.742, 312.5)Temperatura (degC), Point: (29.497, 312.5)Temperatura (degC), Point: (29.99, 312.5)Temperatura (degC), Point: (0, 375)Temperatura (degC), Point: (15, 375)Temperatura (degC), Point: (27.483, 375)Temperatura (degC), Point: (28.742, 375)Temperatura (degC), Point: (29.497, 375)Temperatura (degC), Point: (29.99, 375)Temperatura (degC), Point: (0, 437.5)Temperatura (degC), Point: (15, 437.5)Temperatura (degC), Point: (27.483, 437.5)Temperatura (degC), Point: (28.742, 437.5)Temperatura (degC), Point: (29.497, 437.5)Temperatura (degC), Point: (29.99, 437.5)Temperatura (degC), Point: (0, 468.75)Temperatura (degC), Point: (15, 468.75)Temperatura (degC), Point: (27.483, 468.75)Temperatura (degC), Point: (28.742, 468.75)Temperatura (degC), Point: (29.497, 468.75)Temperatura (degC), Point: (29.99, 468.75)Temperatura (degC), Point: (0, 492.19)Temperatura (degC), Point: (15, 492.19)Temperatura (degC), Point: (27.483, 492.19)Temperatura (degC), Point: (28.742, 492.19)Temperatura (degC), Point: (29.497, 492.19)Temperatura (degC), Point: (29.99, 492.19)
16.000                   2.2500                   1.5000                   6000.0                   2500.0                   0.0000                   20.000                   20.000                   20.000                   20.000                   20.044                   20.278                   20.000                   20.000                   20.000                   20.000                   20.044                   20.278                   20.000                   20.000                   20.000                   20.000                   20.045                   20.278                   20.000                   20.000                   20.000                   20.000                   20.045                   20.279                   20.000                   20.000                   20.000                   20.000                   20.045                   20.280                   20.000                   20.000                   20.000                   20.000                   20.046                   20.281                   20.000                   20.000                   20.000                   20.000                   20.046                   20.282                   20.000                   20.000                   20.000                   20.000                   20.046                   20.283                   20.000                   20.000                   20.000                   20.000                   20.045                   20.280                   20.000                   20.000                   20.000                   20.000                   20.033                   20.251
16.000                   2.2500                   1.5000                   6000.0                   2500.0                   5.0000                   26.220                   44.477                   141.06                   159.34                   171.01                   175.62                   26.253                   44.638                   141.85                   160.26                   171.95                   176.52                   26.308                   44.896                   143.47                   162.12                   173.94                   178.47                   26.287                   44.808                   142.89                   161.43                   173.21                   177.77                   26.328                   45.022                   144.18                   162.90                   174.78                   179.33                   26.296                   44.925                   143.83                   162.47                   174.28                   178.85                   26.343                   45.103                   144.50                   163.27                   175.21                   179.78                   26.409                   45.489                   146.99                   165.98                   177.80                   182.36                   26.195                   44.640                   143.09                   161.42                   172.92                   177.42                   28.088                   45.468                   127.94                   142.74                   152.05                   155.80
16.000                   2.2500                   1.5000                   6000.0                   2500.0                   10.000                   59.710                   102.08                   239.88                   262.18                   275.90                   280.85                   59.874                   102.38                   239.81                   261.95                   275.64                   280.59                   60.083                   102.89                   242.44                   265.40                   279.80                   284.80                   59.930                   102.54                   241.25                   263.81                   277.73                   282.90                   60.140                   103.09                   243.51                   266.72                   281.21                   286.26                   59.907                   102.68                   242.71                   265.68                   279.95                   285.06                   60.074                   103.07                   244.34                   267.57                   281.96                   287.01                   60.274                   103.63                   246.65                   270.02                   284.17                   289.41                   58.723                   100.27                   236.28                   258.13                   271.47                   276.39                   60.191                   97.722                   208.61                   225.25                   235.49                   239.42
16.000                   2.2500                   1.5000                   6000.0                   2500.0                   15.000                   114.88                   170.41                   334.29                   360.61                   376.61                   381.93                   115.08                   170.68                   334.74                   361.11                   377.18                   382.51                   115.39                   171.22                   336.27                   362.83                   378.97                   384.31                   115.11                   170.78                   335.53                   362.08                   378.27                   383.59                   115.46                   171.45                   337.19                   363.89                   380.11                   385.47                   114.98                   170.79                   336.23                   362.86                   379.06                   384.42                   115.26                   171.33                   337.78                   364.66                   381.01                   386.39                   115.21                   171.30                   337.43                   364.20                   380.52                   385.90                   111.02                   164.14                   320.26                   345.18                   360.45                   365.55                   108.87                   156.10                   281.22                   299.58                   310.90                   314.97
16.000                   2.2500                   1.5000                   6000.0                   2500.0                   20.000                   176.87                   241.43                   429.38                   459.73                   477.80                   483.44                   177.03                   241.60                   429.67                   460.14                   478.38                   484.02                   177.43                   242.26                   431.76                   462.58                   480.86                   486.54                   177.08                   241.76                   431.12                   462.03                   480.50                   486.15                   177.53                   242.55                   433.02                   464.03                   482.46                   488.16                   176.87                   241.72                   431.50                   462.30                   480.63                   486.29                   177.17                   242.22                   432.93                   464.11                   482.64                   488.36                   176.45                   241.18                   430.47                   461.21                   479.67                   485.41                   169.02                   229.75                   405.84                   434.32                   451.51                   456.83                   162.92                   216.14                   353.53                   373.64                   385.88                   390.09
16.000                   2.2500                   1.5000                   6000.0                   2500.0                   25.000                   239.38                   310.72                   519.26                   553.56                   573.48                   579.37                   239.49                   310.77                   519.18                   553.51                   573.67                   579.53                   239.93                   311.46                   521.31                   556.01                   576.19                   582.10                   239.53                   310.93                   520.58                   555.41                   575.86                   581.72                   240.04                   311.80                   522.96                   557.88                   578.22                   584.15                   239.37                   311.02                   521.62                   556.46                   576.72                   582.59                   239.57                   311.26                   521.80                   556.77                   577.11                   583.05                   238.04                   309.20                   517.75                   552.08                   572.28                   578.26                   227.48                   294.00                   487.54                   519.31                   538.18                   543.68                   217.68                   275.20                   422.86                   444.52                   457.52                   461.83
16.000                   2.2500                   1.5000                   6000.0                   2500.0                   30.000                   301.73                   378.69                   605.68                   643.84                   665.48                   671.58                   301.78                   378.63                   605.15                   643.18                   665.10                   671.13                   302.23                   379.28                   606.89                   645.22                   667.18                   673.24                   301.81                   378.73                   605.96                   644.40                   666.64                   672.64                   302.34                   379.65                   608.94                   647.49                   669.56                   675.66                   301.76                   379.07                   608.30                   647.09                   669.12                   675.17                   301.79                   378.91                   606.57                   645.02                   666.93                   673.02                   299.41                   375.88                   601.27                   639.00                   660.74                   666.87                   285.84                   357.25                   566.60                   601.47                   621.88                   627.54                   272.49                   333.47                   490.26                   513.33                   527.00                   531.37
16.000                   2.2500                   1.5000                   6000.0                   2500.0                   35.000                   363.01                   444.88                   689.56                   732.46                   756.08                   762.39                   362.99                   444.67                   688.31                   730.82                   754.69                   760.89                   363.43                   445.27                   689.50                   732.25                   756.19                   762.43                   363.01                   444.69                   688.20                   730.93                   755.14                   761.29                   363.56                   445.71                   692.54                   735.71                   759.81                   766.10                   363.12                   445.37                   692.53                   736.10                   760.14                   766.37                   362.92                   444.71                   688.22                   730.89                   754.59                   760.82                   359.69                   440.73                   681.10                   722.68                   746.13                   752.44                   343.31                   418.95                   642.10                   680.17                   702.26                   708.11                   326.74                   390.79                   556.12                   580.64                   594.99                   599.39
16.000                   2.2500                   1.5000                   6000.0                   2500.0                   40.000                   420.61                   504.92                   764.67                   815.31                   841.81                   848.34                   420.46                   504.45                   761.76                   811.46                   837.92                   844.27                   420.87                   504.94                   761.87                   811.74                   838.42                   844.87                   420.43                   504.29                   759.59                   808.98                   835.75                   842.08                   421.05                   505.57                   767.90                   819.12                   846.29                   852.82                   420.87                   505.60                   768.25                   819.55                   846.38                   852.78                   420.28                   504.13                   759.14                   808.57                   834.76                   841.18                   416.23                   499.26                   748.18                   795.21                   820.94                   827.51                   397.70                   475.31                   705.30                   746.96                   771.22                   777.31                   379.07                   444.80                   616.68                   642.78                   657.87                   662.22
16.000                   2.2500                   1.5000                   6000.0                   2500.0                   45.000                   477.44                   563.73                   841.94                   899.48                   928.10                   934.48                   477.16                   563.01                   837.92                   894.41                   922.80                   929.09                   477.53                   563.37                   836.44                   892.97                   921.52                   927.86                   477.07                   562.66                   833.37                   888.86                   917.34                   923.62                   477.75                   564.21                   845.77                   904.34                   933.37                   939.74                   477.85                   564.61                   846.14                   904.27                   932.90                   939.15                   476.86                   562.33                   832.43                   888.18                   916.22                   922.54                   472.00                   556.62                   818.28                   871.31                   899.18                   905.87                   451.39                   530.69                   768.22                   815.50                   841.96                   848.28                   430.83                   498.09                   675.58                   703.25                   719.13                   723.44
16.000                   2.2500                   1.5000                   6000.0                   2500.0                   50.000                   530.19                   616.68                   925.74                   983.05                   1010.0                   1015.2                   529.77                   615.73                   921.26                   978.20                   1005.0                   1010.3                   530.10                   616.01                   920.92                   977.97                   1004.7                   1010.1                   529.62                   615.30                   918.26                   974.95                   1001.7                   1007.2                   530.39                   617.01                   929.02                   986.70                   1013.3                   1018.5                   530.78                   617.68                   929.24                   986.55                   1013.0                   1018.2                   529.38                   614.88                   917.38                   974.48                   1001.4                   1006.9                   523.80                   608.72                   905.42                   962.76                   990.21                   995.97                   501.31                   581.23                   838.17                   891.42                   918.69                   924.83                   479.09                   547.02                   723.15                   750.98                   767.36                   771.67
16.000                   2.2500                   1.5000                   6000.0                   2500.0                   55.000                   579.00                   663.68                   973.53                   1016.8                   1034.9                   1037.9                   578.46                   662.62                   970.28                   1013.8                   1032.4                   1035.5                   578.74                   662.81                   967.89                   1010.6                   1029.1                   1032.2                   578.26                   662.03                   958.00                   998.42                   1016.7                   1020.0                   579.12                   664.07                   979.77                   1023.4                   1040.8                   1043.4                   579.75                   664.58                   964.37                   1004.1                   1021.4                   1024.5                   577.98                   661.51                   956.94                   997.75                   1016.3                   1019.7                   571.92                   655.36                   952.74                   995.90                   1015.4                   1019.0                   547.95                   626.63                   897.46                   945.83                   969.27                   974.22                   524.23                   590.98                   757.60                   784.47                   800.02                   803.96
16.000                   2.2500                   1.5000                   6000.0                   2500.0                   60.000                   620.87                   701.84                   998.47                   1034.2                   1047.6                   1049.2                   620.28                   700.80                   995.59                   1031.0                   1044.5                   1046.2                   620.50                   700.70                   984.35                   1018.0                   1032.0                   1034.0                   620.01                   699.32                   963.30                   993.80                   1008.0                   1010.4                   621.12                   703.11                   1006.8                   1039.3                   1050.4                   1051.4                   621.66                   702.02                   973.70                   1004.6                   1018.3                   1020.6                   619.74                   699.07                   970.17                   1002.6                   1017.3                   1019.8                   613.80                   693.74                   965.74                   998.36                   1013.2                   1015.8                   589.28                   665.46                   934.05                   975.46                   995.41                   999.38                   564.44                   627.49                   787.53                   814.37                   829.28                   832.90
16.000                   2.2500                   1.5000                   6000.0                   2500.0                   65.000                   657.40                   734.24                   1025.3                   1055.2                   1064.7                   1065.1                   656.85                   733.39                   1022.6                   1051.5                   1060.7                   1061.1                   657.00                   732.65                   996.88                   1023.2                   1033.7                   1034.8                   656.45                   730.19                   969.76                   994.30                   1005.8                   1007.7                   657.99                   736.97                   1032.5                   1057.9                   1065.3                   1065.2                   658.20                   733.59                   985.31                   1010.2                   1021.1                   1022.6                   656.25                   730.66                   983.66                   1010.0                   1021.6                   1023.3                   650.78                   726.08                   971.41                   995.11                   1005.9                   1007.6                   626.29                   699.10                   952.98                   985.90                   1001.6                   1004.6                   600.59                   659.52                   815.35                   840.91                   854.82                   858.07
16.000                   2.2500                   1.5000                   6000.0                   2500.0                   70.000                   686.13                   763.62                   1042.5                   1067.0                   1073.8                   1073.5                   685.71                   763.24                   1040.0                   1063.4                   1070.0                   1069.6                   685.77                   761.57                   1009.2                   1030.7                   1038.5                   1038.9                   685.10                   757.41                   978.32                   998.71                   1008.1                   1009.5                   687.10                   768.46                   1049.6                   1070.1                   1075.4                   1074.6                   686.90                   762.39                   999.13                   1020.0                   1028.4                   1029.2                   685.07                   759.25                   998.02                   1020.0                   1029.0                   1029.9                   680.43                   754.77                   980.96                   999.77                   1008.1                   1009.1                   657.19                   727.13                   969.25                   996.55                   1009.2                   1011.3                   631.00                   685.84                   840.39                   864.48                   877.46                   880.38
16.000                   2.2500                   1.5000                   6000.0                   2500.0                   75.000                   710.59                   792.32                   1052.6                   1072.1                   1077.1                   1076.2                   710.33                   792.57                   1051.2                   1070.0                   1074.7                   1073.8                   710.31                   789.98                   1021.5                   1039.3                   1045.2                   1045.0                   709.50                   783.79                   988.00                   1004.9                   1012.4                   1013.2                   711.90                   799.58                   1061.6                   1078.0                   1081.7                   1080.6                   711.28                   790.81                   1014.2                   1031.9                   1038.2                   1038.3                   709.67                   787.37                   1013.2                   1031.7                   1038.3                   1038.5                   706.03                   782.65                   993.15                   1008.7                   1015.1                   1015.6                   684.74                   752.73                   986.77                   1010.0                   1020.1                   1021.4                   658.34                   709.19                   863.96                   886.59                   898.70                   901.31