% Model:              batchmodel_COIL_N_16_COIL_kr_2.25_COIL_kh_1.5_FUNZ_freq_10000_FUNZ_I_eff_4000.mph
% Version:            COMSOL 6.0.0.318
% Date:               Feb 8 2022, 23:07
% Table:              Tabella 1 - GRIGLIA_T
% COIL_N                 COIL_kr                  COIL_kh                  FUNZ_freq                FUNZ_I_eff               Time (s)                 Temperatura (degC), Point: (0, 0)Temperatura (degC), Point: (15, 0)Temperatura (degC), Point: (28.051, 0)Temperatura (degC), Point: (29.025, 0)Temperatura (degC), Point: (29.61, 0)Temperatura (degC), Point: (29.99, 0)Temperatura (degC), Point: (0, 62.5)Temperatura (degC), Point: (15, 62.5)Temperatura (degC), Point: (28.051, 62.5)Temperatura (degC), Point: (29.025, 62.5)Temperatura (degC), Point: (29.61, 62.5)Temperatura (degC), Point: (29.99, 62.5)Temperatura (degC), Point: (0, 125)Temperatura (degC), Point: (15, 125)Temperatura (degC), Point: (28.051, 125)Temperatura (degC), Point: (29.025, 125)Temperatura (degC), Point: (29.61, 125)Temperatura (degC), Point: (29.99, 125)Temperatura (degC), Point: (0, 187.5)Temperatura (degC), Point: (15, 187.5)Temperatura (degC), Point: (28.051, 187.5)Temperatura (degC), Point: (29.025, 187.5)Temperatura (degC), Point: (29.61, 187.5)Temperatura (degC), Point: (29.99, 187.5)Temperatura (degC), Point: (0, 250)Temperatura (degC), Point: (15, 250)Temperatura (degC), Point: (28.051, 250)Temperatura (degC), Point: (29.025, 250)Temperatura (degC), Point: (29.61, 250)Temperatura (degC), Point: (29.99, 250)Temperatura (degC), Point: (0, 312.5)Temperatura (degC), Point: (15, 312.5)Temperatura (degC), Point: (28.051, 312.5)Temperatura (degC), Point: (29.025, 312.5)Temperatura (degC), Point: (29.61, 312.5)Temperatura (degC), Point: (29.99, 312.5)Temperatura (degC), Point: (0, 375)Temperatura (degC), Point: (15, 375)Temperatura (degC), Point: (28.051, 375)Temperatura (degC), Point: (29.025, 375)Temperatura (degC), Point: (29.61, 375)Temperatura (degC), Point: (29.99, 375)Temperatura (degC), Point: (0, 437.5)Temperatura (degC), Point: (15, 437.5)Temperatura (degC), Point: (28.051, 437.5)Temperatura (degC), Point: (29.025, 437.5)Temperatura (degC), Point: (29.61, 437.5)Temperatura (degC), Point: (29.99, 437.5)Temperatura (degC), Point: (0, 468.75)Temperatura (degC), Point: (15, 468.75)Temperatura (degC), Point: (28.051, 468.75)Temperatura (degC), Point: (29.025, 468.75)Temperatura (degC), Point: (29.61, 468.75)Temperatura (degC), Point: (29.99, 468.75)Temperatura (degC), Point: (0, 492.19)Temperatura (degC), Point: (15, 492.19)Temperatura (degC), Point: (28.051, 492.19)Temperatura (degC), Point: (29.025, 492.19)Temperatura (degC), Point: (29.61, 492.19)Temperatura (degC), Point: (29.99, 492.19)
16.000                   2.2500                   1.5000                   10000                    4000.0                   0.0000                   20.000                   20.000                   20.000                   20.000                   20.212                   20.771                   20.000                   20.000                   20.000                   20.000                   20.212                   20.772                   20.000                   20.000                   20.000                   20.000                   20.213                   20.773                   20.000                   20.000                   20.000                   20.000                   20.214                   20.775                   20.000                   20.000                   20.000                   20.000                   20.216                   20.779                   20.000                   20.000                   20.000                   20.000                   20.217                   20.782                   20.000                   20.000                   20.000                   20.000                   20.219                   20.787                   20.000                   20.000                   20.000                   20.000                   20.221                   20.790                   20.000                   20.000                   20.000                   20.000                   20.219                   20.786                   20.000                   20.000                   20.000                   20.000                   20.210                   20.767
16.000                   2.2500                   1.5000                   10000                    4000.0                   5.0000                   33.033                   87.512                   449.19                   510.54                   547.24                   558.13                   33.059                   88.285                   456.41                   521.89                   560.25                   571.21                   33.152                   88.677                   455.56                   520.26                   558.24                   569.28                   33.200                   88.907                   459.32                   526.22                   564.39                   575.32                   33.262                   89.327                   466.59                   536.37                   576.71                   587.67                   33.259                   89.264                   460.75                   526.36                   563.28                   574.18                   33.280                   89.426                   463.26                   530.57                   568.71                   579.67                   33.091                   88.536                   456.69                   522.11                   558.53                   569.08                   32.883                   87.300                   448.33                   512.21                   548.54                   559.06                   34.944                   92.120                   405.37                   454.90                   484.47                   493.66
16.000                   2.2500                   1.5000                   10000                    4000.0                   10.000                   121.92                   244.41                   805.26                   920.30                   973.29                   985.24                   122.48                   245.60                   807.59                   922.81                   975.73                   987.66                   122.74                   245.89                   807.32                   922.18                   974.99                   986.90                   123.13                   246.78                   812.85                   928.79                   981.53                   993.34                   123.62                   247.86                   818.16                   934.51                   986.98                   998.66                   123.49                   247.56                   818.08                   935.03                   987.79                   999.53                   123.48                   247.65                   820.81                   938.26                   990.94                   1002.6                   122.46                   245.86                   818.68                   937.37                   990.74                   1002.6                   120.50                   241.10                   785.87                   897.99                   951.57                   963.90                   127.13                   243.84                   689.42                   758.69                   797.34                   807.50
16.000                   2.2500                   1.5000                   10000                    4000.0                   15.000                   248.18                   395.40                   1092.0                   1144.5                   1157.1                   1157.6                   248.81                   395.93                   1049.2                   1107.2                   1121.9                   1123.0                   249.09                   396.08                   1065.6                   1123.1                   1137.3                   1138.3                   249.76                   396.86                   1023.3                   1084.5                   1101.5                   1103.3                   250.48                   398.12                   1078.5                   1133.5                   1146.9                   1147.7                   250.23                   396.55                   913.20                   967.93                   992.55                   997.87                   250.22                   396.63                   906.74                   960.66                   985.04                   990.34                   248.78                   395.62                   950.64                   1010.7                   1033.2                   1037.1                   244.60                   390.93                   1095.7                   1147.8                   1160.4                   1160.9                   248.79                   384.08                   837.98                   906.65                   939.92                   947.60
16.000                   2.2500                   1.5000                   10000                    4000.0                   20.000                   365.44                   515.84                   1139.9                   1164.7                   1169.6                   1168.7                   365.90                   515.26                   1117.3                   1144.1                   1149.7                   1149.0                   366.02                   514.60                   1116.6                   1144.7                   1150.9                   1150.3                   366.65                   514.02                   1086.5                   1118.8                   1126.6                   1126.5                   367.41                   514.74                   1094.2                   1125.2                   1132.4                   1132.0                   366.70                   508.99                   952.17                   989.81                   1006.1                   1009.4                   366.86                   509.26                   941.28                   977.50                   994.08                   997.60                   365.76                   511.22                   1042.7                   1080.1                   1090.5                   1091.1                   361.39                   512.91                   1129.0                   1153.8                   1158.8                   1157.9                   359.15                   491.72                   923.21                   974.95                   999.28                   1004.5
16.000                   2.2500                   1.5000                   10000                    4000.0                   25.000                   462.22                   605.44                   1131.7                   1148.6                   1151.5                   1150.3                   462.61                   604.95                   1120.4                   1138.1                   1141.3                   1140.2                   462.45                   603.37                   1118.3                   1137.2                   1141.0                   1139.9                   462.91                   602.11                   1102.5                   1123.7                   1128.3                   1127.5                   463.61                   602.17                   1097.9                   1119.3                   1123.9                   1123.1                   462.40                   594.94                   1010.2                   1039.4                   1049.4                   1050.4                   462.73                   595.43                   1000.8                   1028.9                   1039.2                   1040.5                   462.22                   599.37                   1081.7                   1104.7                   1110.0                   1109.3                   458.67                   603.50                   1116.3                   1133.4                   1136.5                   1135.4                   451.05                   576.61                   985.04                   1019.2                   1033.0                   1035.2
16.000                   2.2500                   1.5000                   10000                    4000.0                   30.000                   538.71                   670.01                   1116.5                   1129.9                   1132.0                   1130.7                   539.14                   669.93                   1111.6                   1125.3                   1127.6                   1126.3                   538.80                   668.21                   1108.8                   1123.3                   1125.8                   1124.6                   539.15                   667.03                   1101.7                   1117.1                   1120.0                   1118.9                   539.84                   667.13                   1098.6                   1114.3                   1117.2                   1116.2                   538.43                   660.65                   1066.1                   1086.1                   1090.9                   1090.4                   538.88                   661.38                   1064.8                   1084.7                   1089.6                   1089.1                   538.75                   665.45                   1096.6                   1112.5                   1115.6                   1114.6                   535.77                   668.91                   1111.2                   1124.7                   1127.0                   1125.7                   526.04                   646.39                   1085.4                   1105.9                   1110.4                   1109.7
16.000                   2.2500                   1.5000                   10000                    4000.0                   35.000                   602.15                   721.47                   1114.4                   1125.1                   1126.5                   1125.1                   602.61                   721.98                   1112.9                   1123.7                   1125.2                   1123.7                   602.21                   720.35                   1111.1                   1122.2                   1123.8                   1122.4                   602.51                   719.64                   1108.6                   1120.0                   1121.8                   1120.4                   603.19                   719.84                   1107.8                   1119.3                   1121.1                   1119.7                   601.84                   714.83                   1097.4                   1110.4                   1112.7                   1111.5                   602.33                   715.70                   1098.4                   1111.3                   1113.6                   1112.4                   602.41                   718.98                   1109.8                   1121.3                   1123.0                   1121.6                   599.82                   721.40                   1115.3                   1125.9                   1127.3                   1125.9                   590.89                   707.68                   1133.2                   1144.7                   1146.1                   1144.6
16.000                   2.2500                   1.5000                   10000                    4000.0                   40.000                   654.01                   766.76                   1120.4                   1128.7                   1129.4                   1127.9                   654.45                   767.51                   1120.3                   1128.5                   1129.3                   1127.7                   654.07                   766.07                   1119.4                   1127.8                   1128.6                   1127.1                   654.34                   765.76                   1119.0                   1127.5                   1128.3                   1126.8                   654.99                   766.25                   1119.5                   1127.9                   1128.7                   1127.1                   653.85                   762.39                   1116.5                   1125.4                   1126.3                   1124.8                   654.31                   763.40                   1117.9                   1126.7                   1127.6                   1126.0                   654.48                   765.92                   1122.2                   1130.6                   1131.3                   1129.8                   652.26                   767.34                   1123.4                   1131.6                   1132.2                   1130.6                   646.12                   765.06                   1163.3                   1170.3                   1170.4                   1168.5
16.000                   2.2500                   1.5000                   10000                    4000.0                   45.000                   690.30                   812.37                   1130.1                   1136.5                   1136.6                   1134.9                   690.56                   813.12                   1130.3                   1136.7                   1136.8                   1135.1                   690.25                   812.02                   1129.9                   1136.4                   1136.5                   1134.8                   690.48                   812.04                   1130.1                   1136.6                   1136.7                   1135.0                   691.04                   812.97                   1130.9                   1137.4                   1137.5                   1135.8                   690.18                   810.03                   1129.8                   1136.4                   1136.6                   1134.9                   690.55                   811.18                   1131.2                   1137.8                   1137.9                   1136.2                   690.70                   813.15                   1133.7                   1140.1                   1140.2                   1138.5                   689.04                   813.49                   1133.6                   1139.9                   1140.0                   1138.2                   686.57                   827.07                   1186.0                   1191.1                   1190.5                   1188.4
16.000                   2.2500                   1.5000                   10000                    4000.0                   50.000                   722.85                   858.06                   1140.5                   1145.2                   1144.8                   1142.9                   722.95                   858.80                   1140.8                   1145.5                   1145.1                   1143.2                   722.71                   858.05                   1140.8                   1145.5                   1145.1                   1143.2                   722.93                   858.39                   1141.3                   1146.1                   1145.6                   1143.8                   723.41                   859.70                   1142.4                   1147.1                   1146.6                   1144.8                   722.79                   857.67                   1142.3                   1147.1                   1146.7                   1144.8                   723.09                   858.90                   1143.7                   1148.4                   1148.0                   1146.1                   723.23                   860.35                   1145.2                   1149.9                   1149.4                   1147.5                   722.12                   859.88                   1144.4                   1149.1                   1148.6                   1146.7                   724.38                   889.81                   1207.9                   1211.5                   1210.4                   1208.1
16.000                   2.2500                   1.5000                   10000                    4000.0                   55.000                   750.99                   902.71                   1152.1                   1155.6                   1154.8                   1152.8                   751.26                   903.47                   1152.5                   1156.0                   1155.1                   1153.2                   751.03                   903.00                   1152.6                   1156.1                   1155.3                   1153.3                   751.33                   903.54                   1153.2                   1156.8                   1155.9                   1154.0                   752.01                   904.94                   1154.4                   1157.9                   1157.0                   1155.0                   751.36                   903.66                   1154.7                   1158.2                   1157.4                   1155.4                   751.70                   904.82                   1156.0                   1159.6                   1158.7                   1156.7                   751.94                   905.83                   1157.2                   1160.7                   1159.9                   1157.9                   751.17                   905.91                   1156.8                   1160.3                   1159.4                   1157.4                   763.31                   950.26                   1230.8                   1233.4                   1232.0                   1229.6
16.000                   2.2500                   1.5000                   10000                    4000.0                   60.000                   789.83                   945.95                   1164.9                   1167.4                   1166.2                   1164.1                   790.39                   946.67                   1165.3                   1167.8                   1166.6                   1164.5                   790.17                   946.44                   1165.5                   1168.0                   1166.9                   1164.7                   790.63                   947.10                   1166.3                   1168.8                   1167.6                   1165.5                   791.57                   948.52                   1167.5                   1170.0                   1168.8                   1166.7                   790.89                   947.81                   1168.1                   1170.6                   1169.4                   1167.3                   791.32                   948.88                   1169.4                   1172.0                   1170.8                   1168.6                   791.57                   949.53                   1170.4                   1172.9                   1171.7                   1169.6                   792.13                   950.95                   1170.9                   1173.3                   1172.1                   1170.0                   817.06                   1007.4                   1255.0                   1256.8                   1255.1                   1252.5
16.000                   2.2500                   1.5000                   10000                    4000.0                   65.000                   839.09                   987.79                   1178.8                   1180.6                   1179.1                   1176.9                   840.09                   988.47                   1179.3                   1181.0                   1179.5                   1177.3                   839.88                   988.39                   1179.6                   1181.3                   1179.8                   1177.6                   840.56                   989.13                   1180.4                   1182.1                   1180.6                   1178.4                   841.79                   990.48                   1181.7                   1183.4                   1181.9                   1179.7                   841.11                   990.18                   1182.4                   1184.2                   1182.7                   1180.5                   841.66                   991.12                   1183.8                   1185.6                   1184.1                   1181.8                   841.82                   991.51                   1184.6                   1186.4                   1184.9                   1182.7                   844.70                   995.02                   1186.6                   1188.3                   1186.7                   1184.5                   885.26                   1061.5                   1280.4                   1281.6                   1279.6                   1276.9
16.000                   2.2500                   1.5000                   10000                    4000.0                   70.000                   894.00                   1026.6                   1195.1                   1196.2                   1194.4                   1192.1                   895.06                   1027.2                   1195.5                   1196.6                   1194.9                   1192.5                   894.92                   1027.2                   1195.9                   1197.0                   1195.2                   1192.9                   895.66                   1028.0                   1196.8                   1197.9                   1196.1                   1193.8                   896.95                   1029.2                   1198.1                   1199.2                   1197.5                   1195.1                   896.38                   1029.1                   1199.0                   1200.1                   1198.3                   1196.0                   896.94                   1030.0                   1200.3                   1201.5                   1199.7                   1197.4                   896.98                   1030.2                   1201.1                   1202.3                   1200.5                   1198.2                   902.98                   1036.4                   1205.2                   1206.3                   1204.5                   1202.1                   953.07                   1109.6                   1306.5                   1307.1                   1304.7                   1301.9
