% Model:              batchmodel_COIL_N_16_COIL_kr_3_COIL_kh_1.5_FUNZ_freq_10000_FUNZ_I_eff_4000.mph
% Version:            COMSOL 6.0.0.318
% Date:               Feb 9 2022, 00:15
% Table:              Tabella 1 - GRIGLIA_T
% COIL_N                 COIL_kr                  COIL_kh                  FUNZ_freq                FUNZ_I_eff               Time (s)                 Temperatura (degC), Point: (0, 0)Temperatura (degC), Point: (15, 0)Temperatura (degC), Point: (28.051, 0)Temperatura (degC), Point: (29.025, 0)Temperatura (degC), Point: (29.61, 0)Temperatura (degC), Point: (29.99, 0)Temperatura (degC), Point: (0, 62.5)Temperatura (degC), Point: (15, 62.5)Temperatura (degC), Point: (28.051, 62.5)Temperatura (degC), Point: (29.025, 62.5)Temperatura (degC), Point: (29.61, 62.5)Temperatura (degC), Point: (29.99, 62.5)Temperatura (degC), Point: (0, 125)Temperatura (degC), Point: (15, 125)Temperatura (degC), Point: (28.051, 125)Temperatura (degC), Point: (29.025, 125)Temperatura (degC), Point: (29.61, 125)Temperatura (degC), Point: (29.99, 125)Temperatura (degC), Point: (0, 187.5)Temperatura (degC), Point: (15, 187.5)Temperatura (degC), Point: (28.051, 187.5)Temperatura (degC), Point: (29.025, 187.5)Temperatura (degC), Point: (29.61, 187.5)Temperatura (degC), Point: (29.99, 187.5)Temperatura (degC), Point: (0, 250)Temperatura (degC), Point: (15, 250)Temperatura (degC), Point: (28.051, 250)Temperatura (degC), Point: (29.025, 250)Temperatura (degC), Point: (29.61, 250)Temperatura (degC), Point: (29.99, 250)Temperatura (degC), Point: (0, 312.5)Temperatura (degC), Point: (15, 312.5)Temperatura (degC), Point: (28.051, 312.5)Temperatura (degC), Point: (29.025, 312.5)Temperatura (degC), Point: (29.61, 312.5)Temperatura (degC), Point: (29.99, 312.5)Temperatura (degC), Point: (0, 375)Temperatura (degC), Point: (15, 375)Temperatura (degC), Point: (28.051, 375)Temperatura (degC), Point: (29.025, 375)Temperatura (degC), Point: (29.61, 375)Temperatura (degC), Point: (29.99, 375)Temperatura (degC), Point: (0, 437.5)Temperatura (degC), Point: (15, 437.5)Temperatura (degC), Point: (28.051, 437.5)Temperatura (degC), Point: (29.025, 437.5)Temperatura (degC), Point: (29.61, 437.5)Temperatura (degC), Point: (29.99, 437.5)Temperatura (degC), Point: (0, 468.75)Temperatura (degC), Point: (15, 468.75)Temperatura (degC), Point: (28.051, 468.75)Temperatura (degC), Point: (29.025, 468.75)Temperatura (degC), Point: (29.61, 468.75)Temperatura (degC), Point: (29.99, 468.75)Temperatura (degC), Point: (0, 492.19)Temperatura (degC), Point: (15, 492.19)Temperatura (degC), Point: (28.051, 492.19)Temperatura (degC), Point: (29.025, 492.19)Temperatura (degC), Point: (29.61, 492.19)Temperatura (degC), Point: (29.99, 492.19)
16.000                   3.0000                   1.5000                   10000                    4000.0                   0.0000                   20.000                   20.000                   20.000                   20.000                   20.210                   20.766                   20.000                   20.000                   20.000                   20.000                   20.210                   20.766                   20.000                   20.000                   20.000                   20.000                   20.210                   20.767                   20.000                   20.000                   20.000                   20.000                   20.210                   20.767                   20.000                   20.000                   20.000                   20.000                   20.210                   20.767                   20.000                   20.000                   20.000                   20.000                   20.210                   20.768                   20.000                   20.000                   20.000                   20.000                   20.210                   20.768                   20.000                   20.000                   20.000                   20.000                   20.207                   20.760                   20.000                   20.000                   20.000                   20.000                   20.195                   20.735                   20.000                   20.000                   20.000                   20.000                   20.177                   20.694
16.000                   3.0000                   1.5000                   10000                    4000.0                   5.0000                   35.289                   95.347                   487.72                   556.61                   594.63                   605.28                   35.215                   95.505                   486.78                   555.39                   593.45                   604.11                   35.095                   95.015                   485.94                   554.90                   592.96                   603.59                   35.224                   95.609                   487.56                   556.12                   594.02                   604.60                   35.207                   95.597                   488.45                   556.70                   594.65                   605.31                   35.275                   95.933                   490.46                   559.43                   597.64                   608.31                   35.346                   96.274                   492.96                   561.53                   599.88                   610.60                   34.836                   93.681                   474.42                   540.59                   577.32                   587.62                   34.096                   89.399                   441.00                   500.67                   534.36                   544.01                   49.582                   106.40                   402.51                   448.08                   474.57                   482.53
16.000                   3.0000                   1.5000                   10000                    4000.0                   10.000                   130.93                   253.63                   825.64                   939.84                   991.43                   1003.0                   130.89                   253.76                   825.91                   940.23                   991.86                   1003.4                   130.51                   253.18                   825.83                   940.54                   992.28                   1003.8                   130.81                   253.67                   826.87                   941.51                   993.25                   1004.8                   130.84                   253.74                   826.19                   940.48                   992.16                   1003.7                   131.12                   254.21                   828.42                   943.16                   994.86                   1006.3                   131.36                   254.58                   828.79                   943.26                   994.88                   1006.4                   128.63                   249.09                   801.82                   913.01                   964.89                   976.76                   124.03                   237.30                   729.00                   821.47                   869.66                   881.60                   137.79                   245.25                   645.27                   704.58                   737.13                   745.95
16.000                   3.0000                   1.5000                   10000                    4000.0                   15.000                   255.25                   402.32                   1101.2                   1151.1                   1163.1                   1163.6                   255.21                   401.37                   939.79                   993.05                   1014.0                   1017.9                   254.86                   402.29                   1025.7                   1082.1                   1097.7                   1099.2                   255.21                   403.68                   1084.4                   1133.5                   1145.6                   1146.1                   255.13                   401.07                   902.02                   950.05                   971.65                   976.46                   255.52                   402.24                   944.27                   996.30                   1016.3                   1020.0                   255.83                   403.82                   1088.7                   1138.2                   1150.2                   1150.7                   251.13                   394.96                   902.36                   953.49                   976.24                   981.20                   242.10                   378.42                   1026.3                   1108.5                   1130.0                   1132.4                   248.70                   375.16                   785.97                   848.37                   880.30                   888.09
16.000                   3.0000                   1.5000                   10000                    4000.0                   20.000                   369.41                   515.80                   1116.1                   1145.5                   1152.0                   1151.4                   369.17                   513.17                   1011.3                   1049.2                   1061.5                   1062.8                   369.20                   516.54                   1090.7                   1122.2                   1129.7                   1129.4                   369.81                   519.31                   1116.4                   1144.0                   1150.1                   1149.4                   369.15                   512.46                   959.74                   994.67                   1009.2                   1011.9                   369.69                   514.69                   1009.6                   1046.2                   1058.0                   1059.3                   370.02                   517.91                   1120.6                   1148.5                   1154.7                   1154.0                   364.59                   506.64                   946.01                   981.27                   996.56                   999.63                   353.08                   494.55                   1131.5                   1164.2                   1171.3                   1170.7                   352.40                   477.95                   882.79                   938.23                   965.14                   971.21
16.000                   3.0000                   1.5000                   10000                    4000.0                   25.000                   463.37                   600.85                   1096.2                   1117.5                   1122.0                   1121.2                   462.89                   597.95                   1055.8                   1082.3                   1089.3                   1089.3                   463.22                   602.35                   1109.4                   1130.1                   1134.4                   1133.6                   464.06                   605.43                   1120.4                   1139.2                   1142.8                   1141.8                   462.87                   597.15                   1025.0                   1052.6                   1061.2                   1061.7                   463.53                   599.85                   1059.6                   1084.6                   1091.0                   1090.7                   463.80                   602.95                   1115.4                   1135.2                   1139.2                   1138.2                   458.55                   591.95                   1006.5                   1034.5                   1044.2                   1045.2                   447.15                   585.22                   1119.0                   1139.4                   1143.4                   1142.4                   440.45                   560.64                   967.03                   1010.7                   1029.1                   1032.6
16.000                   3.0000                   1.5000                   10000                    4000.0                   30.000                   541.33                   667.30                   1094.4                   1110.4                   1113.5                   1112.4                   540.69                   664.76                   1082.8                   1100.4                   1104.2                   1103.4                   541.18                   669.10                   1106.5                   1121.5                   1124.2                   1123.1                   542.12                   671.94                   1112.2                   1126.2                   1128.6                   1127.3                   540.65                   664.33                   1076.0                   1094.4                   1098.5                   1097.7                   541.37                   666.86                   1087.9                   1104.5                   1107.9                   1106.9                   541.53                   669.00                   1105.2                   1120.3                   1123.0                   1121.9                   536.70                   659.67                   1066.5                   1086.2                   1090.9                   1090.3                   526.26                   655.53                   1106.7                   1122.0                   1124.8                   1123.6                   515.77                   631.81                   1070.0                   1096.1                   1102.6                   1102.3
16.000                   3.0000                   1.5000                   10000                    4000.0                   35.000                   605.98                   720.32                   1104.9                   1116.6                   1118.4                   1117.1                   605.27                   718.47                   1101.8                   1114.0                   1116.0                   1114.7                   605.76                   721.85                   1108.8                   1120.1                   1121.8                   1120.5                   606.68                   724.47                   1111.8                   1122.6                   1124.1                   1122.7                   605.23                   718.30                   1101.5                   1113.7                   1115.7                   1114.4                   605.90                   720.58                   1105.1                   1116.7                   1118.5                   1117.2                   605.94                   721.49                   1108.1                   1119.5                   1121.2                   1119.9                   601.75                   714.41                   1097.5                   1110.4                   1112.6                   1111.4                   592.61                   710.73                   1105.6                   1117.6                   1119.5                   1118.2                   581.58                   694.42                   1119.8                   1132.9                   1134.9                   1133.5
16.000                   3.0000                   1.5000                   10000                    4000.0                   40.000                   654.42                   765.03                   1116.8                   1125.5                   1126.4                   1124.9                   653.73                   763.31                   1115.3                   1124.3                   1125.2                   1123.7                   654.11                   765.83                   1118.2                   1126.8                   1127.7                   1126.1                   654.89                   768.12                   1119.9                   1128.3                   1129.1                   1127.5                   653.68                   763.20                   1115.5                   1124.5                   1125.4                   1123.9                   654.23                   765.11                   1117.3                   1126.0                   1126.9                   1125.3                   654.18                   765.45                   1117.9                   1126.6                   1127.5                   1125.9                   650.66                   759.08                   1112.6                   1121.9                   1123.0                   1121.5                   642.87                   753.98                   1111.4                   1120.9                   1122.0                   1120.5                   634.57                   747.69                   1143.3                   1151.7                   1152.2                   1150.5
16.000                   3.0000                   1.5000                   10000                    4000.0                   45.000                   693.38                   810.92                   1128.1                   1134.6                   1134.8                   1133.1                   692.79                   809.19                   1127.3                   1133.9                   1134.2                   1132.5                   693.05                   810.89                   1128.5                   1135.0                   1135.2                   1133.4                   693.68                   812.83                   1129.5                   1135.9                   1136.0                   1134.3                   692.73                   809.19                   1127.6                   1134.2                   1134.4                   1132.7                   693.15                   810.71                   1128.5                   1135.0                   1135.2                   1133.5                   693.05                   810.71                   1128.5                   1135.0                   1135.2                   1133.5                   690.20                   804.82                   1124.9                   1131.8                   1132.1                   1130.4                   683.90                   797.25                   1119.4                   1126.7                   1127.2                   1125.5                   679.13                   803.80                   1163.1                   1168.6                   1168.3                   1166.4
16.000                   3.0000                   1.5000                   10000                    4000.0                   50.000                   723.95                   856.95                   1139.2                   1144.0                   1143.7                   1141.8                   723.31                   855.36                   1138.7                   1143.6                   1143.2                   1141.4                   723.47                   856.31                   1139.1                   1144.0                   1143.6                   1141.7                   723.98                   857.84                   1139.7                   1144.5                   1144.1                   1142.3                   723.25                   855.42                   1138.9                   1143.8                   1143.4                   1141.6                   723.57                   856.53                   1139.5                   1144.3                   1143.9                   1142.1                   723.45                   856.33                   1139.3                   1144.1                   1143.8                   1141.9                   721.08                   850.82                   1136.3                   1141.3                   1141.0                   1139.2                   715.90                   841.17                   1128.7                   1134.2                   1134.0                   1132.3                   714.71                   861.93                   1181.7                   1185.4                   1184.5                   1182.4
16.000                   3.0000                   1.5000                   10000                    4000.0                   55.000                   757.74                   901.16                   1150.7                   1154.3                   1153.5                   1151.5                   757.06                   899.87                   1150.3                   1153.9                   1153.2                   1151.2                   757.12                   900.30                   1150.5                   1154.1                   1153.3                   1151.3                   757.61                   901.44                   1150.9                   1154.5                   1153.7                   1151.7                   756.99                   899.92                   1150.5                   1154.1                   1153.3                   1151.4                   757.27                   900.68                   1150.9                   1154.5                   1153.7                   1151.7                   757.14                   900.43                   1150.7                   1154.3                   1153.5                   1151.5                   754.28                   895.05                   1147.5                   1151.3                   1150.5                   1148.6                   749.08                   884.93                   1139.3                   1143.3                   1142.7                   1140.8                   754.79                   918.23                   1200.4                   1203.0                   1201.7                   1199.4
16.000                   3.0000                   1.5000                   10000                    4000.0                   60.000                   800.11                   943.38                   1162.7                   1165.4                   1164.3                   1162.2                   799.51                   942.42                   1162.4                   1165.1                   1164.0                   1161.9                   799.47                   942.57                   1162.5                   1165.1                   1164.0                   1161.9                   800.02                   943.42                   1162.8                   1165.5                   1164.3                   1162.3                   799.43                   942.44                   1162.6                   1165.3                   1164.1                   1162.1                   799.69                   942.96                   1162.9                   1165.5                   1164.4                   1162.3                   799.55                   942.73                   1162.7                   1165.4                   1164.3                   1162.2                   795.19                   937.23                   1159.1                   1161.9                   1160.8                   1158.7                   788.87                   928.08                   1150.8                   1153.8                   1152.8                   1150.8                   805.68                   971.40                   1219.6                   1221.4                   1219.8                   1217.4
16.000                   3.0000                   1.5000                   10000                    4000.0                   65.000                   843.44                   984.88                   1175.1                   1176.9                   1175.4                   1173.2                   842.93                   984.23                   1174.9                   1176.6                   1175.2                   1173.0                   842.79                   984.13                   1174.8                   1176.6                   1175.1                   1173.0                   843.38                   984.70                   1175.1                   1176.9                   1175.4                   1173.2                   842.83                   984.23                   1175.0                   1176.8                   1175.4                   1173.2                   843.07                   984.52                   1175.2                   1177.0                   1175.5                   1173.4                   842.91                   984.31                   1175.1                   1176.8                   1175.4                   1173.2                   837.15                   978.67                   1170.9                   1172.8                   1171.4                   1169.2                   830.06                   970.64                   1162.8                   1164.7                   1163.4                   1161.3                   857.54                   1023.5                   1239.0                   1240.1                   1238.2                   1235.7
16.000                   3.0000                   1.5000                   10000                    4000.0                   70.000                   893.67                   1021.2                   1190.1                   1191.3                   1189.6                   1187.3                   893.26                   1020.7                   1189.9                   1191.0                   1189.3                   1187.0                   893.07                   1020.5                   1189.8                   1191.0                   1189.3                   1187.0                   893.60                   1021.0                   1190.1                   1191.2                   1189.5                   1187.2                   893.17                   1020.7                   1190.0                   1191.2                   1189.5                   1187.2                   893.36                   1020.9                   1190.2                   1191.4                   1189.7                   1187.4                   893.17                   1020.7                   1190.0                   1191.2                   1189.5                   1187.2                   886.80                   1014.8                   1185.2                   1186.4                   1184.8                   1182.5                   881.40                   1008.9                   1177.9                   1179.1                   1177.4                   1175.2                   916.40                   1067.5                   1260.7                   1261.2                   1259.0                   1256.4
16.000                   3.0000                   1.5000                   10000                    4000.0                   75.000                   943.91                   1057.5                   1205.1                   1205.6                   1203.7                   1201.3                   943.60                   1057.2                   1204.9                   1205.4                   1203.5                   1201.1                   943.36                   1056.9                   1204.8                   1205.4                   1203.4                   1201.0                   943.81                   1057.3                   1205.0                   1205.6                   1203.7                   1201.3                   943.52                   1057.2                   1205.1                   1205.6                   1203.7                   1201.3                   943.65                   1057.3                   1205.2                   1205.8                   1203.8                   1201.4                   943.43                   1057.0                   1205.0                   1205.6                   1203.6                   1201.2                   936.44                   1050.9                   1199.4                   1200.0                   1198.1                   1195.8                   932.74                   1047.1                   1192.9                   1193.4                   1191.5                   1189.1                   975.26                   1111.5                   1282.4                   1282.3                   1279.9                   1277.1