% Model:              batchmodel_COIL_N_16_COIL_kr_1.5_COIL_kh_1_FUNZ_freq_10000_FUNZ_I_eff_1000.mph
% Version:            COMSOL 6.0.0.318
% Date:               Feb 8 2022, 20:53
% Table:              Tabella 1 - GRIGLIA_T
% COIL_N                 COIL_kr                  COIL_kh                  FUNZ_freq                FUNZ_I_eff               Time (s)                 Temperatura (degC), Point: (0, 0)Temperatura (degC), Point: (15, 0)Temperatura (degC), Point: (28.051, 0)Temperatura (degC), Point: (29.025, 0)Temperatura (degC), Point: (29.61, 0)Temperatura (degC), Point: (29.99, 0)Temperatura (degC), Point: (0, 62.5)Temperatura (degC), Point: (15, 62.5)Temperatura (degC), Point: (28.051, 62.5)Temperatura (degC), Point: (29.025, 62.5)Temperatura (degC), Point: (29.61, 62.5)Temperatura (degC), Point: (29.99, 62.5)Temperatura (degC), Point: (0, 125)Temperatura (degC), Point: (15, 125)Temperatura (degC), Point: (28.051, 125)Temperatura (degC), Point: (29.025, 125)Temperatura (degC), Point: (29.61, 125)Temperatura (degC), Point: (29.99, 125)Temperatura (degC), Point: (0, 187.5)Temperatura (degC), Point: (15, 187.5)Temperatura (degC), Point: (28.051, 187.5)Temperatura (degC), Point: (29.025, 187.5)Temperatura (degC), Point: (29.61, 187.5)Temperatura (degC), Point: (29.99, 187.5)Temperatura (degC), Point: (0, 250)Temperatura (degC), Point: (15, 250)Temperatura (degC), Point: (28.051, 250)Temperatura (degC), Point: (29.025, 250)Temperatura (degC), Point: (29.61, 250)Temperatura (degC), Point: (29.99, 250)Temperatura (degC), Point: (0, 312.5)Temperatura (degC), Point: (15, 312.5)Temperatura (degC), Point: (28.051, 312.5)Temperatura (degC), Point: (29.025, 312.5)Temperatura (degC), Point: (29.61, 312.5)Temperatura (degC), Point: (29.99, 312.5)Temperatura (degC), Point: (0, 375)Temperatura (degC), Point: (15, 375)Temperatura (degC), Point: (28.051, 375)Temperatura (degC), Point: (29.025, 375)Temperatura (degC), Point: (29.61, 375)Temperatura (degC), Point: (29.99, 375)Temperatura (degC), Point: (0, 437.5)Temperatura (degC), Point: (15, 437.5)Temperatura (degC), Point: (28.051, 437.5)Temperatura (degC), Point: (29.025, 437.5)Temperatura (degC), Point: (29.61, 437.5)Temperatura (degC), Point: (29.99, 437.5)Temperatura (degC), Point: (0, 468.75)Temperatura (degC), Point: (15, 468.75)Temperatura (degC), Point: (28.051, 468.75)Temperatura (degC), Point: (29.025, 468.75)Temperatura (degC), Point: (29.61, 468.75)Temperatura (degC), Point: (29.99, 468.75)Temperatura (degC), Point: (0, 492.19)Temperatura (degC), Point: (15, 492.19)Temperatura (degC), Point: (28.051, 492.19)Temperatura (degC), Point: (29.025, 492.19)Temperatura (degC), Point: (29.61, 492.19)Temperatura (degC), Point: (29.99, 492.19)
16.000                   1.5000                   1.0000                   10000                    1000.0                   0.0000                   20.000                   20.000                   20.000                   20.000                   20.005                   20.116                   20.000                   20.000                   20.000                   20.000                   20.005                   20.117                   20.000                   20.000                   20.000                   20.000                   20.005                   20.120                   20.000                   20.000                   20.000                   20.000                   20.005                   20.124                   20.000                   20.000                   20.000                   20.000                   20.006                   20.130                   20.000                   20.000                   20.000                   20.000                   20.007                   20.138                   20.000                   20.000                   20.000                   20.000                   20.008                   20.147                   20.000                   20.000                   20.000                   20.000                   20.009                   20.157                   20.000                   20.000                   20.000                   20.000                   20.006                   20.130                   20.000                   20.000                   20.000                   20.000                   20.011                   20.174
16.000                   1.5000                   1.0000                   10000                    1000.0                   5.0000                   21.466                   25.887                   50.175                   53.305                   55.273                   56.271                   21.449                   25.877                   50.287                   53.444                   55.430                   56.436                   21.471                   25.991                   51.005                   54.251                   56.293                   57.324                   21.514                   26.193                   52.284                   55.685                   57.824                   58.897                   21.566                   26.456                   53.965                   57.576                   59.849                   60.982                   21.609                   26.700                   55.883                   59.759                   62.203                   63.411                   21.683                   27.076                   58.299                   62.481                   65.120                   66.415                   21.735                   27.365                   60.562                   65.066                   67.916                   69.302                   21.547                   26.387                   53.650                   57.232                   59.490                   60.618                   22.120                   28.562                   64.837                   69.807                   72.922                   74.423
16.000                   1.5000                   1.0000                   10000                    1000.0                   10.000                   29.988                   40.345                   72.711                   76.092                   78.176                   79.207                   29.957                   40.346                   72.927                   76.338                   78.442                   79.482                   30.070                   40.657                   74.014                   77.520                   79.683                   80.749                   30.278                   41.189                   75.860                   79.523                   81.784                   82.893                   30.526                   41.856                   78.252                   82.133                   84.531                   85.700                   30.762                   42.549                   81.032                   85.186                   87.757                   89.000                   31.095                   43.433                   84.263                   88.728                   91.498                   92.828                   31.355                   44.190                   87.376                   92.165                   95.144                   96.562                   30.440                   41.642                   77.733                   81.591                   83.976                   85.139                   32.958                   47.337                   94.184                   99.377                   102.57                   104.09
16.000                   1.5000                   1.0000                   10000                    1000.0                   15.000                   43.826                   57.948                   94.469                   98.022                   100.20                   101.26                   43.807                   57.990                   94.781                   98.366                   100.56                   101.63                   44.023                   58.453                   96.065                   99.745                   102.00                   103.10                   44.404                   59.219                   98.183                   102.02                   104.38                   105.52                   44.862                   60.183                   100.94                   105.00                   107.50                   108.70                   45.328                   61.228                   104.16                   108.50                   111.17                   112.44                   45.928                   62.468                   107.80                   112.44                   115.32                   116.68                   46.413                   63.563                   111.32                   116.29                   119.38                   120.83                   44.721                   59.869                   100.28                   104.31                   106.80                   107.99                   49.514                   68.493                   119.68                   124.97                   128.26                   129.79
16.000                   1.5000                   1.0000                   10000                    1000.0                   20.000                   61.917                   77.768                   116.52                   120.24                   122.51                   123.61                   61.927                   77.857                   116.90                   120.65                   122.95                   124.05                   62.218                   78.404                   118.28                   122.12                   124.48                   125.61                   62.702                   79.276                   120.50                   124.50                   126.96                   128.14                   63.302                   80.397                   123.42                   127.65                   130.25                   131.49                   63.937                   81.636                   126.85                   131.36                   134.14                   135.45                   64.709                   83.056                   130.68                   135.50                   138.49                   139.88                   65.337                   84.312                   134.37                   139.53                   142.73                   144.21                   63.158                   80.049                   122.67                   126.87                   129.46                   130.68                   69.738                   90.489                   143.54                   148.95                   152.33                   153.88
16.000                   1.5000                   1.0000                   10000                    1000.0                   25.000                   81.092                   98.168                   138.84                   142.71                   145.09                   146.22                   81.134                   98.300                   139.27                   143.18                   145.58                   146.72                   81.479                   98.905                   140.71                   144.72                   147.18                   148.35                   82.036                   99.847                   143.00                   147.17                   149.74                   150.94                   82.744                   101.08                   146.05                   150.46                   153.16                   154.43                   83.511                   102.46                   149.64                   154.33                   157.21                   158.55                   84.411                   104.01                   153.61                   158.62                   161.71                   163.14                   85.142                   105.38                   157.44                   162.79                   166.10                   167.61                   82.613                   100.71                   145.23                   149.59                   152.28                   153.54                   90.652                   112.56                   167.18                   172.72                   176.17                   177.74
16.000                   1.5000                   1.0000                   10000                    1000.0                   30.000                   101.41                   119.18                   161.43                   165.47                   167.95                   169.11                   101.49                   119.35                   161.91                   165.99                   168.49                   169.66                   101.86                   119.98                   163.38                   167.56                   170.12                   171.32                   102.46                   120.96                   165.71                   170.05                   172.72                   173.96                   103.24                   122.26                   168.85                   173.42                   176.23                   177.53                   104.10                   123.73                   172.54                   177.40                   180.40                   181.77                   105.08                   125.36                   176.61                   181.80                   185.01                   186.46                   105.88                   126.78                   180.52                   186.05                   189.48                   191.02                   103.14                   121.89                   167.95                   172.48                   175.27                   176.56                   112.29                   134.71                   190.57                   196.26                   199.79                   201.37
16.000                   1.5000                   1.0000                   10000                    1000.0                   35.000                   122.87                   141.14                   184.97                   189.19                   191.78                   192.98                   122.97                   141.34                   185.49                   189.75                   192.36                   193.57                   123.34                   141.96                   186.95                   191.31                   193.98                   195.22                   123.94                   142.94                   189.30                   193.83                   196.61                   197.88                   124.75                   144.27                   192.48                   197.25                   200.18                   201.51                   125.64                   145.77                   196.24                   201.29                   204.41                   205.81                   126.65                   147.41                   200.35                   205.74                   209.07                   210.56                   127.43                   148.82                   204.27                   210.01                   213.56                   215.14                   124.59                   143.81                   191.41                   196.13                   199.03                   200.35                   134.17                   156.88                   213.87                   219.71                   223.33                   224.93
16.000                   1.5000                   1.0000                   10000                    1000.0                   40.000                   144.38                   163.15                   208.57                   212.97                   215.67                   216.91                   144.51                   163.38                   209.12                   213.56                   216.29                   217.53                   144.87                   163.99                   210.56                   215.11                   217.90                   219.17                   145.48                   164.97                   212.93                   217.65                   220.55                   221.86                   146.31                   166.32                   216.16                   221.12                   224.17                   225.54                   147.24                   167.85                   219.97                   225.22                   228.46                   229.90                   148.26                   169.50                   224.13                   229.72                   233.18                   234.70                   149.03                   170.89                   228.05                   234.00                   237.68                   239.29                   146.10                   165.76                   214.90                   219.81                   222.83                   224.18                   156.06                   179.05                   237.17                   243.15                   246.86                   248.48
16.000                   1.5000                   1.0000                   10000                    1000.0                   45.000                   165.90                   185.16                   232.16                   236.75                   239.56                   240.83                   166.05                   185.43                   232.75                   237.37                   240.21                   241.49                   166.40                   186.01                   234.18                   238.91                   241.81                   243.11                   167.01                   187.00                   236.57                   241.47                   244.49                   245.83                   167.87                   188.37                   239.84                   244.99                   248.16                   249.56                   168.83                   189.93                   243.70                   249.15                   252.51                   253.99                   169.86                   191.59                   247.91                   253.71                   257.28                   258.84                   170.63                   192.97                   251.84                   257.99                   261.81                   263.45                   167.60                   187.71                   238.40                   243.49                   246.62                   248.01                   177.95                   201.22                   260.47                   266.59                   270.40                   272.04
16.000                   1.5000                   1.0000                   10000                    1000.0                   50.000                   187.88                   207.70                   256.54                   261.34                   264.29                   265.60                   188.05                   207.98                   257.15                   261.98                   264.95                   266.27                   188.38                   208.54                   258.56                   263.51                   266.54                   267.89                   188.98                   209.52                   260.96                   266.08                   269.23                   270.61                   189.84                   210.89                   264.26                   269.63                   272.93                   274.38                   190.80                   212.46                   268.16                   273.83                   277.33                   278.85                   191.82                   214.12                   272.39                   278.42                   282.14                   283.73                   192.54                   215.44                   276.30                   282.69                   286.65                   288.33                   189.40                   210.03                   262.51                   267.81                   271.08                   272.51                   199.72                   223.36                   284.02                   290.32                   294.23                   295.88
16.000                   1.5000                   1.0000                   10000                    1000.0                   55.000                   209.93                   230.31                   281.03                   286.05                   289.13                   290.47                   210.12                   230.60                   281.65                   286.71                   289.81                   291.17                   210.42                   231.15                   283.06                   288.22                   291.39                   292.77                   211.01                   232.11                   285.46                   290.80                   294.08                   295.50                   211.86                   233.49                   288.78                   294.38                   297.82                   299.30                   212.82                   235.05                   292.71                   298.62                   302.26                   303.81                   213.83                   236.70                   296.97                   303.23                   307.10                   308.73                   214.50                   237.97                   300.85                   307.49                   311.59                   313.31                   211.25                   232.40                   286.71                   292.23                   295.63                   297.09                   221.48                   245.51                   307.61                   314.09                   318.10                   319.77
16.000                   1.5000                   1.0000                   10000                    1000.0                   60.000                   231.98                   252.93                   305.52                   310.75                   313.97                   315.35                   232.18                   253.23                   306.16                   311.43                   314.67                   316.06                   232.47                   253.76                   307.56                   312.93                   316.24                   317.66                   233.03                   254.70                   309.95                   315.51                   318.94                   320.39                   233.89                   256.08                   313.31                   319.12                   322.71                   324.22                   234.85                   257.65                   317.27                   323.40                   327.19                   328.78                   235.84                   259.28                   321.55                   328.04                   332.06                   333.72                   236.46                   260.50                   325.40                   332.28                   336.54                   338.28                   233.10                   254.77                   310.92                   316.65                   320.18                   321.68                   243.23                   267.65                   331.19                   337.86                   341.96                   343.66
16.000                   1.5000                   1.0000                   10000                    1000.0                   65.000                   254.19                   275.82                   330.52                   335.99                   339.35                   340.77                   254.39                   276.13                   331.17                   336.68                   340.06                   341.49                   254.66                   276.64                   332.57                   338.19                   341.64                   343.10                   255.21                   277.57                   334.99                   340.79                   344.36                   345.86                   256.07                   278.96                   338.39                   344.45                   348.19                   349.74                   257.02                   280.53                   342.40                   348.80                   352.74                   354.36                   258.00                   282.16                   346.72                   353.49                   357.66                   359.36                   258.54                   283.31                   350.55                   357.69                   362.12                   363.90                   254.93                   277.24                   335.47                   341.44                   345.12                   346.66                   264.77                   289.70                   354.85                   361.71                   365.92                   367.63
16.000                   1.5000                   1.0000                   10000                    1000.0                   70.000                   276.43                   298.77                   355.64                   361.36                   364.87                   366.32                   276.64                   299.09                   356.31                   362.06                   365.59                   367.06                   276.89                   299.59                   357.70                   363.57                   367.17                   368.66                   277.43                   300.52                   360.15                   366.21                   369.93                   371.46                   278.28                   301.91                   363.60                   369.93                   373.82                   375.40                   279.23                   303.49                   367.67                   374.33                   378.44                   380.10                   280.20                   305.11                   372.04                   379.08                   383.42                   385.16                   280.65                   306.18                   375.83                   383.26                   387.85                   389.67                   276.76                   299.75                   360.12                   366.33                   370.16                   371.73                   286.25                   311.73                   378.53                   385.57                   389.90                   391.63
16.000                   1.5000                   1.0000                   10000                    1000.0                   75.000                   298.67                   321.73                   380.77                   386.72                   390.38                   391.87                   298.89                   322.06                   381.44                   387.43                   391.12                   392.62                   299.12                   322.54                   382.84                   388.95                   392.70                   394.23                   299.65                   323.46                   385.32                   391.62                   395.50                   397.06                   300.49                   324.86                   388.82                   395.40                   399.45                   401.07                   301.45                   326.44                   392.95                   399.87                   404.14                   405.83                   302.39                   328.06                   397.36                   404.68                   409.19                   410.95                   302.76                   329.05                   401.11                   408.83                   413.59                   415.44                   298.59                   322.25                   384.76                   391.22                   395.20                   396.80                   307.73                   333.76                   402.20                   409.44                   413.88                   415.62