% Model:              batchmodel_COIL_N_16_COIL_kr_2.25_COIL_kh_1_FUNZ_freq_10000_FUNZ_I_eff_4000.mph
% Version:            COMSOL 6.0.0.318
% Date:               Feb 8 2022, 22:42
% Table:              Tabella 1 - GRIGLIA_T
% COIL_N                 COIL_kr                  COIL_kh                  FUNZ_freq                FUNZ_I_eff               Time (s)                 Temperatura (degC), Point: (0, 0)Temperatura (degC), Point: (15, 0)Temperatura (degC), Point: (28.051, 0)Temperatura (degC), Point: (29.025, 0)Temperatura (degC), Point: (29.61, 0)Temperatura (degC), Point: (29.99, 0)Temperatura (degC), Point: (0, 62.5)Temperatura (degC), Point: (15, 62.5)Temperatura (degC), Point: (28.051, 62.5)Temperatura (degC), Point: (29.025, 62.5)Temperatura (degC), Point: (29.61, 62.5)Temperatura (degC), Point: (29.99, 62.5)Temperatura (degC), Point: (0, 125)Temperatura (degC), Point: (15, 125)Temperatura (degC), Point: (28.051, 125)Temperatura (degC), Point: (29.025, 125)Temperatura (degC), Point: (29.61, 125)Temperatura (degC), Point: (29.99, 125)Temperatura (degC), Point: (0, 187.5)Temperatura (degC), Point: (15, 187.5)Temperatura (degC), Point: (28.051, 187.5)Temperatura (degC), Point: (29.025, 187.5)Temperatura (degC), Point: (29.61, 187.5)Temperatura (degC), Point: (29.99, 187.5)Temperatura (degC), Point: (0, 250)Temperatura (degC), Point: (15, 250)Temperatura (degC), Point: (28.051, 250)Temperatura (degC), Point: (29.025, 250)Temperatura (degC), Point: (29.61, 250)Temperatura (degC), Point: (29.99, 250)Temperatura (degC), Point: (0, 312.5)Temperatura (degC), Point: (15, 312.5)Temperatura (degC), Point: (28.051, 312.5)Temperatura (degC), Point: (29.025, 312.5)Temperatura (degC), Point: (29.61, 312.5)Temperatura (degC), Point: (29.99, 312.5)Temperatura (degC), Point: (0, 375)Temperatura (degC), Point: (15, 375)Temperatura (degC), Point: (28.051, 375)Temperatura (degC), Point: (29.025, 375)Temperatura (degC), Point: (29.61, 375)Temperatura (degC), Point: (29.99, 375)Temperatura (degC), Point: (0, 437.5)Temperatura (degC), Point: (15, 437.5)Temperatura (degC), Point: (28.051, 437.5)Temperatura (degC), Point: (29.025, 437.5)Temperatura (degC), Point: (29.61, 437.5)Temperatura (degC), Point: (29.99, 437.5)Temperatura (degC), Point: (0, 468.75)Temperatura (degC), Point: (15, 468.75)Temperatura (degC), Point: (28.051, 468.75)Temperatura (degC), Point: (29.025, 468.75)Temperatura (degC), Point: (29.61, 468.75)Temperatura (degC), Point: (29.99, 468.75)Temperatura (degC), Point: (0, 492.19)Temperatura (degC), Point: (15, 492.19)Temperatura (degC), Point: (28.051, 492.19)Temperatura (degC), Point: (29.025, 492.19)Temperatura (degC), Point: (29.61, 492.19)Temperatura (degC), Point: (29.99, 492.19)
16.000                   2.2500                   1.0000                   10000                    4000.0                   0.0000                   20.000                   20.000                   20.000                   20.000                   20.206                   20.757                   20.000                   20.000                   20.000                   20.000                   20.206                   20.758                   20.000                   20.000                   20.000                   20.000                   20.208                   20.762                   20.000                   20.000                   20.000                   20.000                   20.210                   20.767                   20.000                   20.000                   20.000                   20.000                   20.213                   20.774                   20.000                   20.000                   20.000                   20.000                   20.217                   20.781                   20.000                   20.000                   20.000                   20.000                   20.220                   20.789                   20.000                   20.000                   20.000                   20.000                   20.224                   20.796                   20.000                   20.000                   20.000                   20.000                   20.210                   20.767                   20.000                   20.000                   20.000                   20.000                   20.223                   20.796
16.000                   2.2500                   1.0000                   10000                    4000.0                   5.0000                   33.013                   87.841                   454.37                   520.05                   556.99                   567.45                   32.825                   87.448                   453.49                   518.93                   556.04                   566.57                   32.907                   87.979                   460.58                   527.87                   566.09                   576.71                   32.990                   88.328                   463.64                   532.16                   571.58                   582.40                   32.959                   88.229                   460.84                   528.47                   567.12                   577.68                   33.073                   88.946                   467.03                   535.99                   573.97                   584.13                   33.081                   88.913                   462.99                   529.11                   566.50                   577.10                   33.191                   89.520                   465.62                   532.48                   569.24                   579.72                   32.822                   86.974                   446.19                   507.73                   542.53                   552.71                   48.170                   103.40                   427.25                   479.78                   510.36                   519.45
16.000                   2.2500                   1.0000                   10000                    4000.0                   10.000                   121.81                   242.26                   786.80                   898.37                   951.87                   964.19                   121.57                   242.37                   789.50                   902.01                   955.30                   967.52                   122.30                   244.08                   797.11                   910.83                   963.94                   976.04                   122.40                   244.32                   801.60                   916.63                   970.04                   982.16                   122.04                   243.56                   799.44                   914.74                   968.46                   980.66                   122.40                   244.19                   804.04                   920.46                   974.28                   986.49                   122.39                   244.39                   809.33                   927.40                   981.65                   993.87                   122.64                   244.71                   811.09                   929.81                   984.09                   996.30                   120.95                   239.47                   771.32                   879.93                   933.20                   945.65                   139.36                   255.55                   706.15                   780.04                   821.61                   832.27
16.000                   2.2500                   1.0000                   10000                    4000.0                   15.000                   246.52                   391.54                   1065.9                   1127.5                   1142.8                   1143.9                   246.55                   391.76                   1034.2                   1100.6                   1118.1                   1119.8                   247.73                   393.09                   975.62                   1044.1                   1066.4                   1069.6                   247.73                   393.23                   944.54                   1005.5                   1029.2                   1033.6                   247.13                   392.38                   914.33                   972.46                   998.49                   1004.1                   247.53                   393.05                   906.08                   962.98                   988.90                   994.56                   247.67                   394.01                   901.35                   953.96                   977.73                   982.89                   247.81                   394.59                   907.27                   958.85                   981.95                   986.98                   244.50                   389.12                   1112.7                   1163.8                   1175.7                   1176.0                   257.40                   394.29                   861.31                   928.96                   961.01                   968.26
16.000                   2.2500                   1.0000                   10000                    4000.0                   20.000                   362.87                   510.77                   1134.4                   1161.2                   1166.7                   1165.9                   362.93                   509.71                   1106.2                   1136.9                   1143.9                   1143.5                   363.92                   508.46                   1046.1                   1084.2                   1094.6                   1095.2                   363.95                   507.76                   1007.5                   1047.0                   1059.9                   1061.4                   363.23                   504.56                   934.97                   972.79                   990.38                   994.17                   363.87                   505.29                   927.56                   965.49                   983.35                   987.22                   364.51                   507.77                   932.42                   967.73                   984.05                   987.52                   364.86                   509.83                   953.62                   986.82                   1001.1                   1003.9                   361.03                   510.90                   1120.7                   1147.6                   1153.3                   1152.5                   366.87                   502.08                   980.42                   1032.6                   1051.9                   1055.0
16.000                   2.2500                   1.0000                   10000                    4000.0                   25.000                   459.21                   600.49                   1129.3                   1147.2                   1150.5                   1149.3                   459.16                   598.80                   1114.6                   1134.7                   1138.7                   1137.7                   459.78                   596.16                   1080.4                   1105.1                   1111.0                   1110.6                   459.83                   595.08                   1056.5                   1083.5                   1090.7                   1090.7                   458.87                   590.31                   984.16                   1012.5                   1023.9                   1025.8                   459.69                   591.09                   977.86                   1005.4                   1016.8                   1018.7                   460.82                   594.41                   994.86                   1022.0                   1032.3                   1033.7                   461.46                   597.81                   1041.0                   1067.1                   1074.5                   1074.5                   457.98                   600.15                   1109.7                   1129.3                   1133.2                   1132.3                   459.10                   591.83                   1098.4                   1123.5                   1129.1                   1128.5
16.000                   2.2500                   1.0000                   10000                    4000.0                   30.000                   536.17                   666.22                   1115.1                   1129.0                   1131.4                   1130.1                   536.07                   664.61                   1107.4                   1122.5                   1125.2                   1124.1                   536.48                   662.09                   1090.6                   1107.8                   1111.4                   1110.5                   536.58                   661.26                   1081.7                   1099.8                   1103.8                   1103.0                   535.53                   656.63                   1047.8                   1069.5                   1075.5                   1075.4                   536.44                   657.59                   1047.9                   1069.4                   1075.3                   1075.2                   537.85                   661.21                   1063.5                   1083.5                   1088.5                   1088.0                   538.68                   664.96                   1088.2                   1105.0                   1108.5                   1107.5                   535.28                   665.41                   1103.7                   1118.9                   1121.7                   1120.5                   536.33                   666.66                   1140.9                   1154.3                   1156.2                   1154.8
16.000                   2.2500                   1.0000                   10000                    4000.0                   35.000                   598.93                   717.65                   1111.5                   1122.7                   1124.3                   1122.9                   598.82                   716.52                   1107.9                   1119.5                   1121.3                   1120.0                   599.15                   714.61                   1101.3                   1113.8                   1115.8                   1114.6                   599.32                   714.31                   1099.5                   1112.2                   1114.3                   1113.1                   598.37                   710.55                   1089.0                   1103.2                   1105.9                   1104.9                   599.29                   711.74                   1091.1                   1105.1                   1107.7                   1106.6                   600.76                   715.31                   1098.8                   1111.7                   1114.0                   1112.8                   601.66                   718.87                   1109.3                   1120.8                   1122.6                   1121.2                   598.33                   717.13                   1107.6                   1119.2                   1121.0                   1119.7                   601.96                   731.20                   1167.5                   1176.0                   1176.4                   1174.6
16.000                   2.2500                   1.0000                   10000                    4000.0                   40.000                   650.26                   762.71                   1116.5                   1125.2                   1126.1                   1124.6                   650.19                   761.76                   1115.2                   1124.0                   1125.0                   1123.5                   650.50                   760.49                   1113.3                   1122.4                   1123.5                   1122.0                   650.73                   760.74                   1114.0                   1123.1                   1124.1                   1122.6                   649.98                   757.81                   1111.5                   1121.1                   1122.2                   1120.8                   650.84                   759.38                   1114.0                   1123.4                   1124.5                   1123.0                   652.25                   763.01                   1118.5                   1127.4                   1128.3                   1126.7                   653.08                   766.67                   1123.7                   1132.1                   1132.8                   1131.2                   650.02                   762.73                   1116.5                   1125.3                   1126.2                   1124.7                   656.99                   793.93                   1190.5                   1196.3                   1196.0                   1193.9
16.000                   2.2500                   1.0000                   10000                    4000.0                   45.000                   691.16                   807.70                   1125.6                   1132.2                   1132.4                   1130.7                   691.14                   806.82                   1125.3                   1131.9                   1132.1                   1130.4                   691.44                   806.38                   1125.3                   1132.0                   1132.2                   1130.5                   691.70                   807.05                   1126.7                   1133.3                   1133.5                   1131.8                   691.18                   805.13                   1126.8                   1133.6                   1133.8                   1132.1                   691.95                   807.06                   1129.3                   1135.9                   1136.1                   1134.4                   693.17                   810.92                   1132.7                   1139.1                   1139.2                   1137.4                   693.85                   814.46                   1135.9                   1142.1                   1142.1                   1140.3                   691.31                   808.78                   1127.5                   1134.0                   1134.2                   1132.5                   700.88                   860.31                   1213.1                   1217.2                   1216.3                   1214.1
16.000                   2.2500                   1.0000                   10000                    4000.0                   50.000                   723.25                   853.32                   1136.4                   1141.3                   1141.0                   1139.2                   723.24                   852.85                   1136.5                   1141.4                   1141.1                   1139.3                   723.60                   853.08                   1137.1                   1142.1                   1141.8                   1139.9                   723.94                   854.06                   1138.6                   1143.6                   1143.2                   1141.4                   723.60                   853.12                   1139.6                   1144.6                   1144.2                   1142.4                   724.41                   855.23                   1142.0                   1146.9                   1146.6                   1144.7                   725.70                   858.90                   1145.1                   1149.8                   1149.4                   1147.5                   726.37                   861.86                   1147.6                   1152.3                   1151.8                   1149.9                   724.75                   856.75                   1139.8                   1144.7                   1144.3                   1142.4                   743.68                   925.06                   1236.5                   1239.6                   1238.3                   1235.9
16.000                   2.2500                   1.0000                   10000                    4000.0                   55.000                   751.63                   898.45                   1147.8                   1151.5                   1150.7                   1148.8                   751.57                   898.28                   1148.0                   1151.7                   1151.0                   1149.0                   752.14                   898.95                   1148.9                   1152.6                   1151.8                   1149.9                   752.66                   900.07                   1150.5                   1154.2                   1153.4                   1151.4                   752.46                   899.87                   1151.8                   1155.5                   1154.7                   1152.8                   753.55                   901.99                   1154.3                   1157.9                   1157.1                   1155.1                   755.34                   905.28                   1157.2                   1160.8                   1159.9                   1157.9                   756.15                   907.66                   1159.4                   1163.0                   1162.1                   1160.1                   755.82                   905.01                   1153.0                   1156.5                   1155.7                   1153.7                   795.01                   986.08                   1260.8                   1263.2                   1261.6                   1259.1
16.000                   2.2500                   1.0000                   10000                    4000.0                   60.000                   789.97                   941.94                   1160.3                   1162.9                   1161.8                   1159.7                   789.98                   942.00                   1160.6                   1163.2                   1162.1                   1160.0                   790.76                   942.95                   1161.7                   1164.3                   1163.2                   1161.1                   791.44                   944.15                   1163.3                   1165.9                   1164.8                   1162.7                   791.40                   944.50                   1164.9                   1167.6                   1166.4                   1164.3                   792.74                   946.57                   1167.4                   1170.0                   1168.9                   1166.8                   794.86                   949.50                   1170.3                   1172.9                   1171.7                   1169.6                   795.82                   951.41                   1172.3                   1174.9                   1173.7                   1171.6                   798.08                   951.80                   1167.7                   1170.1                   1168.9                   1166.8                   854.28                   1042.9                   1285.9                   1287.6                   1285.7                   1283.0
16.000                   2.2500                   1.0000                   10000                    4000.0                   65.000                   841.07                   983.34                   1174.2                   1176.0                   1174.5                   1172.3                   841.32                   983.52                   1174.6                   1176.3                   1174.9                   1172.7                   842.34                   984.57                   1175.7                   1177.5                   1176.1                   1173.9                   843.16                   985.76                   1177.5                   1179.2                   1177.8                   1175.6                   843.31                   986.41                   1179.3                   1181.1                   1179.6                   1177.4                   844.81                   988.37                   1181.8                   1183.7                   1182.2                   1180.0                   847.06                   990.93                   1184.7                   1186.5                   1185.1                   1182.8                   848.18                   992.53                   1186.7                   1188.6                   1187.1                   1184.9                   854.68                   996.71                   1184.5                   1186.1                   1184.5                   1182.3                   923.75                   1094.3                   1312.1                   1313.1                   1310.9                   1308.0
