% Model:              batchmodel_COIL_N_16_COIL_kr_1.5_COIL_kh_2_FUNZ_freq_10000_FUNZ_I_eff_1000.mph
% Version:            COMSOL 6.0.0.318
% Date:               Feb 8 2022, 21:42
% Table:              Tabella 1 - GRIGLIA_T
% COIL_N                 COIL_kr                  COIL_kh                  FUNZ_freq                FUNZ_I_eff               Time (s)                 Temperatura (degC), Point: (0, 0)Temperatura (degC), Point: (15, 0)Temperatura (degC), Point: (28.051, 0)Temperatura (degC), Point: (29.025, 0)Temperatura (degC), Point: (29.61, 0)Temperatura (degC), Point: (29.99, 0)Temperatura (degC), Point: (0, 62.5)Temperatura (degC), Point: (15, 62.5)Temperatura (degC), Point: (28.051, 62.5)Temperatura (degC), Point: (29.025, 62.5)Temperatura (degC), Point: (29.61, 62.5)Temperatura (degC), Point: (29.99, 62.5)Temperatura (degC), Point: (0, 125)Temperatura (degC), Point: (15, 125)Temperatura (degC), Point: (28.051, 125)Temperatura (degC), Point: (29.025, 125)Temperatura (degC), Point: (29.61, 125)Temperatura (degC), Point: (29.99, 125)Temperatura (degC), Point: (0, 187.5)Temperatura (degC), Point: (15, 187.5)Temperatura (degC), Point: (28.051, 187.5)Temperatura (degC), Point: (29.025, 187.5)Temperatura (degC), Point: (29.61, 187.5)Temperatura (degC), Point: (29.99, 187.5)Temperatura (degC), Point: (0, 250)Temperatura (degC), Point: (15, 250)Temperatura (degC), Point: (28.051, 250)Temperatura (degC), Point: (29.025, 250)Temperatura (degC), Point: (29.61, 250)Temperatura (degC), Point: (29.99, 250)Temperatura (degC), Point: (0, 312.5)Temperatura (degC), Point: (15, 312.5)Temperatura (degC), Point: (28.051, 312.5)Temperatura (degC), Point: (29.025, 312.5)Temperatura (degC), Point: (29.61, 312.5)Temperatura (degC), Point: (29.99, 312.5)Temperatura (degC), Point: (0, 375)Temperatura (degC), Point: (15, 375)Temperatura (degC), Point: (28.051, 375)Temperatura (degC), Point: (29.025, 375)Temperatura (degC), Point: (29.61, 375)Temperatura (degC), Point: (29.99, 375)Temperatura (degC), Point: (0, 437.5)Temperatura (degC), Point: (15, 437.5)Temperatura (degC), Point: (28.051, 437.5)Temperatura (degC), Point: (29.025, 437.5)Temperatura (degC), Point: (29.61, 437.5)Temperatura (degC), Point: (29.99, 437.5)Temperatura (degC), Point: (0, 468.75)Temperatura (degC), Point: (15, 468.75)Temperatura (degC), Point: (28.051, 468.75)Temperatura (degC), Point: (29.025, 468.75)Temperatura (degC), Point: (29.61, 468.75)Temperatura (degC), Point: (29.99, 468.75)Temperatura (degC), Point: (0, 492.19)Temperatura (degC), Point: (15, 492.19)Temperatura (degC), Point: (28.051, 492.19)Temperatura (degC), Point: (29.025, 492.19)Temperatura (degC), Point: (29.61, 492.19)Temperatura (degC), Point: (29.99, 492.19)
16.000                   1.5000                   2.0000                   10000                    1000.0                   0.0000                   20.000                   20.000                   20.000                   20.000                   20.006                   20.133                   20.000                   20.000                   20.000                   20.000                   20.006                   20.133                   20.000                   20.000                   20.000                   20.000                   20.006                   20.134                   20.000                   20.000                   20.000                   20.000                   20.007                   20.135                   20.000                   20.000                   20.000                   20.000                   20.007                   20.136                   20.000                   20.000                   20.000                   20.000                   20.007                   20.138                   20.000                   20.000                   20.000                   20.000                   20.007                   20.140                   20.000                   20.000                   20.000                   20.000                   20.007                   20.142                   20.000                   20.000                   20.000                   20.000                   20.009                   20.157                   20.000                   20.000                   20.000                   20.000                   20.007                   20.140
16.000                   1.5000                   2.0000                   10000                    1000.0                   5.0000                   21.662                   26.745                   54.343                   58.012                   60.329                   61.482                   21.692                   26.952                   55.233                   58.920                   61.238                   62.388                   21.728                   27.091                   55.707                   59.427                   61.778                   62.946                   21.750                   27.194                   56.222                   59.995                   62.370                   63.547                   21.715                   27.083                   56.052                   59.867                   62.267                   63.456                   21.776                   27.302                   56.855                   60.734                   63.188                   64.397                   21.718                   27.107                   56.596                   60.523                   63.019                   64.255                   21.772                   27.345                   57.599                   61.597                   64.125                   65.372                   21.772                   27.425                   59.578                   64.027                   66.858                   68.241                   22.038                   27.946                   57.243                   61.037                   63.446                   64.642
16.000                   1.5000                   2.0000                   10000                    1000.0                   10.000                   30.651                   42.283                   79.727                   83.729                   86.200                   87.403                   30.730                   42.433                   79.149                   82.977                   85.332                   86.461                   30.902                   42.799                   80.302                   84.250                   86.732                   87.938                   30.952                   42.890                   80.291                   84.272                   86.753                   87.961                   30.796                   42.623                   79.922                   83.850                   86.360                   87.577                   31.007                   43.047                   81.193                   85.233                   87.678                   88.848                   30.906                   42.975                   82.039                   86.340                   88.980                   90.253                   31.052                   43.292                   82.487                   86.719                   89.355                   90.629                   31.112                   43.741                   86.117                   90.855                   93.815                   95.229                   31.550                   43.759                   80.477                   84.431                   86.934                   88.149
16.000                   1.5000                   2.0000                   10000                    1000.0                   15.000                   46.299                   61.803                   103.84                   108.05                   110.65                   111.89                   46.250                   61.596                   102.75                   106.77                   109.24                   110.38                   46.576                   62.093                   104.36                   108.57                   111.10                   112.32                   46.504                   61.893                   103.40                   107.59                   110.18                   111.42                   46.236                   61.539                   102.89                   107.09                   109.68                   110.91                   46.572                   62.090                   104.77                   109.12                   111.67                   112.86                   46.524                   62.173                   105.23                   109.73                   112.45                   113.74                   46.679                   62.422                   105.58                   110.01                   112.76                   114.06                   46.839                   63.197                   109.77                   114.70                   117.77                   119.21                   47.119                   62.647                   104.06                   108.29                   110.85                   112.08
16.000                   1.5000                   2.0000                   10000                    1000.0                   20.000                   65.210                   82.888                   127.74                   132.12                   134.82                   136.09                   64.871                   82.207                   126.29                   130.55                   133.17                   134.36                   65.301                   82.748                   127.66                   132.05                   134.63                   135.87                   65.044                   82.299                   126.53                   130.95                   133.66                   134.94                   64.699                   81.910                   126.26                   130.81                   133.52                   134.80                   65.132                   82.526                   127.78                   132.35                   135.08                   136.34                   65.135                   82.679                   128.25                   132.95                   135.75                   137.07                   65.232                   82.834                   128.56                   133.20                   136.07                   137.42                   65.415                   83.711                   132.84                   137.98                   141.16                   142.64                   65.472                   82.778                   126.88                   131.26                   133.91                   135.15
16.000                   1.5000                   2.0000                   10000                    1000.0                   25.000                   85.464                   104.46                   151.35                   155.91                   158.71                   160.01                   84.822                   103.41                   149.68                   154.16                   156.91                   158.16                   85.296                   103.92                   150.60                   155.14                   157.84                   159.11                   84.884                   103.35                   149.81                   154.43                   157.28                   158.60                   84.472                   102.92                   149.67                   154.50                   157.38                   158.72                   85.033                   103.70                   151.36                   156.21                   159.15                   160.52                   85.027                   103.78                   151.44                   156.33                   159.24                   160.59                   85.036                   103.84                   151.74                   156.60                   159.60                   160.98                   85.162                   104.66                   155.86                   161.20                   164.51                   166.02                   84.985                   103.38                   149.11                   153.57                   156.30                   157.57
16.000                   1.5000                   2.0000                   10000                    1000.0                   30.000                   107.61                   127.41                   176.28                   181.04                   183.97                   185.31                   106.61                   125.98                   174.41                   179.13                   182.03                   183.34                   107.05                   126.42                   175.10                   179.85                   182.69                   184.01                   106.47                   125.67                   174.09                   178.92                   181.89                   183.25                   106.05                   125.27                   174.12                   179.15                   182.18                   183.56                   106.74                   126.22                   176.26                   181.42                   184.57                   186.00                   106.54                   126.00                   175.55                   180.63                   183.67                   185.06                   106.46                   125.98                   175.83                   180.90                   184.03                   185.45                   106.41                   126.60                   179.72                   185.27                   188.72                   190.27                   106.02                   125.04                   172.38                   176.99                   179.78                   181.09
16.000                   1.5000                   2.0000                   10000                    1000.0                   35.000                   130.15                   150.63                   201.48                   206.45                   209.51                   210.88                   128.77                   148.83                   199.40                   204.38                   207.43                   208.79                   129.16                   149.18                   199.90                   204.87                   207.86                   209.24                   128.40                   148.24                   198.56                   203.61                   206.71                   208.11                   127.99                   147.88                   198.77                   204.00                   207.17                   208.59                   128.82                   149.02                   201.43                   206.91                   210.26                   211.74                   128.39                   148.44                   199.83                   205.12                   208.29                   209.72                   128.21                   148.35                   200.10                   205.38                   208.64                   210.10                   127.96                   148.74                   203.75                   209.52                   213.10                   214.69                   127.36                   146.92                   195.86                   200.63                   203.49                   204.82
16.000                   1.5000                   2.0000                   10000                    1000.0                   40.000                   152.68                   173.86                   226.67                   231.85                   235.04                   236.46                   150.93                   171.67                   224.40                   229.63                   232.83                   234.24                   151.28                   171.95                   224.71                   229.90                   233.04                   234.47                   150.33                   170.81                   223.04                   228.29                   231.53                   232.96                   149.93                   170.49                   223.43                   228.86                   232.15                   233.62                   150.89                   171.82                   226.60                   232.39                   235.95                   237.48                   150.23                   170.89                   224.12                   229.60                   232.91                   234.38                   149.97                   170.73                   224.37                   229.86                   233.26                   234.76                   149.51                   170.88                   227.78                   233.77                   237.49                   239.11                   148.70                   168.80                   219.34                   224.27                   227.20                   228.55
16.000                   1.5000                   2.0000                   10000                    1000.0                   45.000                   175.52                   197.37                   252.25                   257.66                   260.99                   262.44                   173.48                   194.88                   249.62                   255.09                   258.42                   259.86                   173.76                   195.08                   249.80                   255.22                   258.53                   260.01                   172.67                   193.79                   248.01                   253.48                   256.86                   258.33                   172.27                   193.50                   248.42                   254.05                   257.48                   258.98                   173.38                   194.99                   251.74                   257.73                   261.39                   262.95                   172.50                   193.80                   249.07                   254.78                   258.24                   259.75                   172.12                   193.53                   249.23                   254.95                   258.49                   260.03                   171.40                   193.40                   252.38                   258.61                   262.48                   264.14                   170.29                   190.87                   242.80                   247.88                   250.88                   252.26
16.000                   1.5000                   2.0000                   10000                    1000.0                   50.000                   198.50                   221.00                   277.97                   283.63                   287.10                   288.59                   196.18                   218.23                   274.95                   280.63                   284.08                   285.55                   196.39                   218.35                   275.01                   280.66                   284.14                   285.66                   195.18                   216.94                   273.17                   278.88                   282.40                   283.91                   194.79                   216.66                   273.55                   279.39                   282.95                   284.47                   196.03                   218.30                   276.88                   283.00                   286.74                   288.31                   194.94                   216.90                   274.29                   280.23                   283.85                   285.40                   194.44                   216.51                   274.32                   280.29                   283.98                   285.56                   193.43                   216.08                   277.21                   283.69                   287.71                   289.41                   191.97                   213.03                   266.26                   271.47                   274.55                   275.95
16.000                   1.5000                   2.0000                   10000                    1000.0                   55.000                   221.47                   244.63                   303.70                   309.59                   313.22                   314.75                   218.88                   241.58                   300.27                   306.16                   309.75                   311.25                   219.02                   241.63                   300.22                   306.10                   309.75                   311.31                   217.68                   240.09                   298.33                   304.28                   307.94                   309.49                   217.30                   239.82                   298.69                   304.73                   308.42                   309.97                   218.68                   241.62                   302.01                   308.27                   312.09                   313.67                   217.37                   240.00                   299.51                   305.68                   309.46                   311.05                   216.75                   239.50                   299.42                   305.63                   309.47                   311.08                   215.46                   238.75                   302.04                   308.77                   312.95                   314.68                   213.66                   235.19                   289.71                   295.05                   298.23                   299.65
16.000                   1.5000                   2.0000                   10000                    1000.0                   60.000                   244.49                   268.40                   329.77                   335.93                   339.72                   341.28                   241.68                   265.10                   325.92                   332.05                   335.77                   337.29                   241.75                   265.09                   325.86                   332.00                   335.83                   337.43                   240.37                   263.53                   324.04                   330.25                   334.06                   335.65                   239.89                   263.11                   324.06                   330.33                   334.16                   335.73                   241.37                   265.01                   327.30                   333.72                   337.62                   339.21                   239.97                   263.35                   325.19                   331.63                   335.57                   337.20                   239.24                   262.75                   325.03                   331.50                   335.50                   337.15                   237.60                   261.63                   327.28                   334.29                   338.63                   340.40                   235.36                   257.42                   313.39                   318.88                   322.14                   323.57
16.000                   1.5000                   2.0000                   10000                    1000.0                   65.000                   267.54                   292.25                   356.08                   362.52                   366.48                   368.09                   264.54                   288.74                   351.80                   358.17                   362.03                   363.57                   264.55                   288.67                   351.79                   358.22                   362.24                   363.87                   263.18                   287.16                   350.13                   356.61                   360.60                   362.22                   262.53                   286.49                   349.60                   356.12                   360.10                   361.69                   264.08                   288.45                   352.69                   359.28                   363.28                   364.89                   262.67                   286.87                   351.21                   357.93                   362.04                   363.71                   261.85                   286.19                   350.98                   357.75                   361.92                   363.60                   259.81                   284.64                   352.81                   360.11                   364.63                   366.43                   257.08                   279.71                   337.22                   342.86                   346.21                   347.66
16.000                   1.5000                   2.0000                   10000                    1000.0                   70.000                   290.59                   316.11                   382.39                   389.12                   393.25                   394.89                   287.41                   312.37                   377.67                   384.29                   388.29                   389.84                   287.34                   312.25                   377.73                   384.43                   388.64                   390.31                   286.00                   310.80                   376.22                   382.97                   387.13                   388.78                   285.17                   309.87                   375.15                   381.91                   386.03                   387.64                   286.80                   311.89                   378.08                   384.85                   388.94                   390.56                   285.37                   310.39                   377.22                   384.22                   388.51                   390.21                   284.45                   309.63                   376.94                   383.99                   388.33                   390.05                   282.02                   307.65                   378.33                   385.93                   390.63                   392.47                   278.79                   301.99                   361.05                   366.85                   370.29                   371.75
16.000                   1.5000                   2.0000                   10000                    1000.0                   75.000                   313.65                   339.96                   408.70                   415.71                   420.01                   421.69                   310.27                   336.01                   403.55                   410.41                   414.55                   416.12                   310.14                   335.84                   403.66                   410.64                   415.04                   416.75                   308.81                   334.43                   402.31                   409.34                   413.66                   415.35                   307.81                   333.25                   400.69                   407.70                   411.96                   413.60                   309.51                   335.33                   403.48                   410.41                   414.60                   416.24                   308.08                   333.91                   403.23                   410.52                   414.97                   416.71                   307.06                   333.06                   402.90                   410.23                   414.75                   416.50                   304.23                   330.66                   403.86                   411.75                   416.62                   418.50                   300.50                   324.28                   384.88                   390.83                   394.36                   395.83