% Model:              batchmodel_COIL_N_16_COIL_kr_1.5_COIL_kh_1.5_FUNZ_freq_6000_FUNZ_I_eff_1000.mph
% Version:            COMSOL 6.0.0.318
% Date:               Feb 8 2022, 21:11
% Table:              Tabella 1 - GRIGLIA_T
% COIL_N                 COIL_kr                  COIL_kh                  FUNZ_freq                FUNZ_I_eff               Time (s)                 Temperatura (degC), Point: (0, 0)Temperatura (degC), Point: (15, 0)Temperatura (degC), Point: (27.483, 0)Temperatura (degC), Point: (28.742, 0)Temperatura (degC), Point: (29.497, 0)Temperatura (degC), Point: (29.99, 0)Temperatura (degC), Point: (0, 62.5)Temperatura (degC), Point: (15, 62.5)Temperatura (degC), Point: (27.483, 62.5)Temperatura (degC), Point: (28.742, 62.5)Temperatura (degC), Point: (29.497, 62.5)Temperatura (degC), Point: (29.99, 62.5)Temperatura (degC), Point: (0, 125)Temperatura (degC), Point: (15, 125)Temperatura (degC), Point: (27.483, 125)Temperatura (degC), Point: (28.742, 125)Temperatura (degC), Point: (29.497, 125)Temperatura (degC), Point: (29.99, 125)Temperatura (degC), Point: (0, 187.5)Temperatura (degC), Point: (15, 187.5)Temperatura (degC), Point: (27.483, 187.5)Temperatura (degC), Point: (28.742, 187.5)Temperatura (degC), Point: (29.497, 187.5)Temperatura (degC), Point: (29.99, 187.5)Temperatura (degC), Point: (0, 250)Temperatura (degC), Point: (15, 250)Temperatura (degC), Point: (27.483, 250)Temperatura (degC), Point: (28.742, 250)Temperatura (degC), Point: (29.497, 250)Temperatura (degC), Point: (29.99, 250)Temperatura (degC), Point: (0, 312.5)Temperatura (degC), Point: (15, 312.5)Temperatura (degC), Point: (27.483, 312.5)Temperatura (degC), Point: (28.742, 312.5)Temperatura (degC), Point: (29.497, 312.5)Temperatura (degC), Point: (29.99, 312.5)Temperatura (degC), Point: (0, 375)Temperatura (degC), Point: (15, 375)Temperatura (degC), Point: (27.483, 375)Temperatura (degC), Point: (28.742, 375)Temperatura (degC), Point: (29.497, 375)Temperatura (degC), Point: (29.99, 375)Temperatura (degC), Point: (0, 437.5)Temperatura (degC), Point: (15, 437.5)Temperatura (degC), Point: (27.483, 437.5)Temperatura (degC), Point: (28.742, 437.5)Temperatura (degC), Point: (29.497, 437.5)Temperatura (degC), Point: (29.99, 437.5)Temperatura (degC), Point: (0, 468.75)Temperatura (degC), Point: (15, 468.75)Temperatura (degC), Point: (27.483, 468.75)Temperatura (degC), Point: (28.742, 468.75)Temperatura (degC), Point: (29.497, 468.75)Temperatura (degC), Point: (29.99, 468.75)Temperatura (degC), Point: (0, 492.19)Temperatura (degC), Point: (15, 492.19)Temperatura (degC), Point: (27.483, 492.19)Temperatura (degC), Point: (28.742, 492.19)Temperatura (degC), Point: (29.497, 492.19)Temperatura (degC), Point: (29.99, 492.19)
16.000                   1.5000                   1.5000                   6000.0                   1000.0                   0.0000                   20.000                   20.000                   20.000                   20.000                   20.002                   20.083                   20.000                   20.000                   20.000                   20.000                   20.002                   20.083                   20.000                   20.000                   20.000                   20.000                   20.002                   20.084                   20.000                   20.000                   20.000                   20.000                   20.002                   20.086                   20.000                   20.000                   20.000                   20.000                   20.003                   20.087                   20.000                   20.000                   20.000                   20.000                   20.003                   20.090                   20.000                   20.000                   20.000                   20.000                   20.003                   20.092                   20.000                   20.000                   20.000                   20.000                   20.003                   20.095                   20.000                   20.000                   20.000                   20.000                   20.003                   20.097                   20.000                   20.000                   20.000                   20.000                   20.003                   20.094
16.000                   1.5000                   1.5000                   6000.0                   1000.0                   5.0000                   21.757                   25.456                   44.552                   47.922                   50.056                   51.137                   21.771                   25.466                   44.240                   47.559                   49.706                   50.797                   21.825                   25.669                   45.801                   49.485                   51.767                   52.853                   21.828                   25.680                   45.879                   49.662                   52.039                   53.216                   21.851                   25.797                   46.851                   50.820                   53.300                   54.512                   21.885                   25.930                   47.881                   52.099                   54.655                   55.932                   21.925                   26.112                   49.219                   53.647                   56.266                   57.576                   21.916                   26.080                   48.309                   52.389                   55.032                   56.395                   21.929                   26.185                   50.185                   54.902                   57.931                   59.414                   22.223                   26.764                   48.632                   52.583                   55.182                   56.525
16.000                   1.5000                   1.5000                   6000.0                   1000.0                   10.000                   29.493                   38.212                   63.732                   67.306                   69.525                   70.631                   29.540                   38.216                   63.579                   67.200                   69.452                   70.567                   29.839                   38.879                   65.287                   68.988                   71.276                   72.402                   29.863                   38.983                   65.966                   69.820                   72.168                   73.323                   29.987                   39.365                   67.561                   71.572                   73.987                   75.179                   30.114                   39.647                   68.326                   72.381                   74.855                   76.063                   30.296                   40.107                   69.856                   74.054                   76.666                   77.923                   30.206                   39.973                   69.918                   74.235                   76.905                   78.197                   30.264                   40.195                   71.027                   75.438                   78.154                   79.469                   31.272                   41.586                   70.801                   74.926                   77.491                   78.741
16.000                   1.5000                   1.5000                   6000.0                   1000.0                   15.000                   41.996                   53.137                   81.436                   85.190                   87.495                   88.630                   42.089                   53.196                   81.229                   84.987                   87.308                   88.440                   42.519                   53.850                   82.250                   86.041                   88.402                   89.568                   42.603                   54.074                   83.076                   86.938                   89.252                   90.346                   42.816                   54.563                   84.699                   88.794                   91.206                   92.345                   42.990                   54.878                   85.371                   89.453                   91.919                   93.116                   43.289                   55.440                   86.902                   91.156                   93.795                   95.042                   43.135                   55.354                   87.668                   92.137                   94.767                   96.011                   43.094                   55.356                   88.121                   92.734                   95.427                   96.634                   44.499                   56.948                   87.653                   91.736                   94.246                   95.412
16.000                   1.5000                   1.5000                   6000.0                   1000.0                   20.000                   56.352                   68.598                   97.809                   101.65                   104.03                   105.18                   56.498                   68.756                   98.015                   101.88                   104.27                   105.42                   56.949                   69.315                   98.804                   102.70                   105.12                   106.29                   57.092                   69.605                   99.548                   103.51                   105.97                   107.16                   57.346                   70.076                   100.67                   104.73                   107.25                   108.47                   57.544                   70.424                   101.59                   105.76                   108.37                   109.62                   57.920                   71.031                   102.96                   107.26                   109.96                   111.25                   57.720                   70.957                   103.55                   107.99                   110.77                   112.10                   57.468                   70.628                   103.26                   107.72                   110.53                   111.88                   59.026                   72.220                   103.30                   107.43                   110.03                   111.29
16.000                   1.5000                   1.5000                   6000.0                   1000.0                   25.000                   71.569                   84.423                   114.54                   118.51                   120.97                   122.14                   71.755                   84.640                   114.86                   118.84                   121.31                   122.49                   72.188                   85.144                   115.60                   119.63                   122.12                   123.32                   72.373                   85.475                   116.41                   120.53                   123.07                   124.29                   72.626                   85.897                   117.35                   121.54                   124.15                   125.39                   72.843                   86.283                   118.39                   122.71                   125.39                   126.67                   73.270                   86.928                   119.78                   124.24                   127.02                   128.34                   73.027                   86.842                   120.44                   125.03                   127.91                   129.26                   72.497                   86.160                   119.67                   124.30                   127.19                   128.56                   74.068                   87.667                   119.40                   123.64                   126.30                   127.57
16.000                   1.5000                   1.5000                   6000.0                   1000.0                   30.000                   87.334                   100.62                   131.63                   135.72                   138.25                   139.45                   87.543                   100.87                   131.99                   136.10                   138.64                   139.85                   87.958                   101.34                   132.71                   136.86                   139.43                   140.65                   88.176                   101.71                   133.58                   137.82                   140.45                   141.69                   88.409                   102.08                   134.41                   138.73                   141.41                   142.68                   88.637                   102.49                   135.51                   139.95                   142.72                   144.02                   89.090                   103.16                   136.90                   141.49                   144.34                   145.68                   88.792                   103.03                   137.57                   142.31                   145.27                   146.65                   87.962                   102.01                   136.40                   141.15                   144.13                   145.52                   89.421                   103.31                   135.64                   139.97                   142.67                   143.96
16.000                   1.5000                   1.5000                   6000.0                   1000.0                   35.000                   103.13                   116.84                   148.73                   152.95                   155.56                   156.78                   103.36                   117.12                   149.14                   153.37                   155.99                   157.22                   103.76                   117.57                   149.84                   154.12                   156.76                   158.01                   104.01                   117.96                   150.76                   155.13                   157.83                   159.10                   104.22                   118.29                   151.49                   155.94                   158.70                   159.99                   104.46                   118.72                   152.64                   157.22                   160.07                   161.39                   104.94                   119.40                   154.04                   158.75                   161.68                   163.05                   104.59                   119.25                   154.73                   159.60                   162.64                   164.04                   103.45                   117.87                   153.14                   158.03                   161.08                   162.49                   104.79                   118.97                   151.89                   156.30                   159.06                   160.35
16.000                   1.5000                   1.5000                   6000.0                   1000.0                   40.000                   119.28                   133.39                   166.20                   170.54                   173.23                   174.48                   119.52                   133.67                   166.62                   170.97                   173.67                   174.93                   119.91                   134.11                   167.31                   171.72                   174.44                   175.71                   120.18                   134.52                   168.26                   172.76                   175.55                   176.84                   120.37                   134.82                   168.93                   173.51                   176.35                   177.67                   120.62                   135.27                   170.14                   174.85                   177.77                   179.12                   121.09                   135.93                   171.49                   176.33                   179.34                   180.73                   120.68                   135.73                   172.18                   177.19                   180.32                   181.75                   119.23                   134.01                   170.19                   175.21                   178.35                   179.78                   120.39                   134.84                   168.38                   172.88                   175.68                   176.99
16.000                   1.5000                   1.5000                   6000.0                   1000.0                   45.000                   135.80                   150.27                   184.03                   188.51                   191.28                   192.56                   136.02                   150.54                   184.43                   188.92                   191.70                   192.98                   136.42                   150.98                   185.14                   189.68                   192.49                   193.78                   136.70                   151.41                   186.10                   190.74                   193.61                   194.93                   136.87                   151.69                   186.75                   191.47                   194.40                   195.74                   137.14                   152.16                   188.00                   192.85                   195.86                   197.24                   137.56                   152.76                   189.26                   194.23                   197.33                   198.74                   137.08                   152.51                   189.94                   195.10                   198.31                   199.76                   135.32                   150.44                   187.56                   192.72                   195.94                   197.40                   136.23                   150.93                   185.12                   189.71                   192.57                   193.90
16.000                   1.5000                   1.5000                   6000.0                   1000.0                   50.000                   152.31                   167.15                   201.87                   206.48                   209.34                   210.64                   152.53                   167.40                   202.24                   206.87                   209.74                   211.04                   152.92                   167.85                   202.96                   207.64                   210.54                   211.85                   153.22                   168.29                   203.94                   208.71                   211.67                   213.01                   153.38                   168.55                   204.58                   209.43                   212.45                   213.81                   153.65                   169.04                   205.86                   210.85                   213.95                   215.35                   154.04                   169.59                   207.02                   212.14                   215.32                   216.76                   153.48                   169.28                   207.71                   213.01                   216.31                   217.78                   151.40                   166.87                   204.93                   210.24                   213.54                   215.02                   152.07                   167.03                   201.86                   206.54                   209.46                   210.80
16.000                   1.5000                   1.5000                   6000.0                   1000.0                   55.000                   168.83                   184.03                   219.70                   224.45                   227.39                   228.72                   169.04                   184.27                   220.05                   224.82                   227.77                   229.10                   169.43                   184.73                   220.79                   225.60                   228.58                   229.93                   169.74                   185.18                   221.78                   226.69                   229.74                   231.10                   169.88                   185.41                   222.40                   227.39                   230.49                   231.88                   170.17                   185.92                   223.72                   228.86                   232.05                   233.47                   170.51                   186.41                   224.79                   230.05                   233.32                   234.77                   169.88                   186.06                   225.47                   230.91                   234.30                   235.80                   167.48                   183.30                   222.30                   227.75                   231.14                   232.64                   167.91                   183.13                   218.60                   223.37                   226.35                   227.70
16.000                   1.5000                   1.5000                   6000.0                   1000.0                   60.000                   185.34                   200.91                   237.54                   242.42                   245.45                   246.80                   185.54                   201.14                   237.87                   242.76                   245.80                   247.15                   185.94                   201.60                   238.62                   243.56                   246.63                   248.00                   186.26                   202.06                   239.62                   244.67                   247.80                   249.18                   186.38                   202.28                   240.22                   245.35                   248.54                   249.95                   186.68                   202.81                   241.58                   246.86                   250.14                   251.58                   186.98                   203.24                   242.56                   247.95                   251.31                   252.79                   186.29                   202.83                   243.23                   248.82                   252.30                   253.82                   183.57                   199.73                   239.68                   245.26                   248.74                   250.25                   183.75                   199.23                   235.35                   240.20                   243.24                   244.60
16.000                   1.5000                   1.5000                   6000.0                   1000.0                   65.000                   202.06                   218.01                   255.66                   260.69                   263.81                   265.18                   202.25                   218.22                   255.96                   261.01                   264.14                   265.52                   202.64                   218.68                   256.72                   261.81                   264.97                   266.36                   202.97                   219.15                   257.73                   262.93                   266.15                   267.56                   203.08                   219.36                   258.34                   263.62                   266.90                   268.33                   203.37                   219.87                   259.67                   265.09                   268.47                   269.93                   203.63                   220.27                   260.62                   266.16                   269.61                   271.11                   202.85                   219.78                   261.23                   266.97                   270.54                   272.09                   199.80                   216.33                   257.29                   263.02                   266.60                   268.14                   199.70                   215.45                   252.25                   257.21                   260.30                   261.68
16.000                   1.5000                   1.5000                   6000.0                   1000.0                   70.000                   218.92                   235.26                   273.98                   279.17                   282.38                   283.78                   219.09                   235.46                   274.27                   279.47                   282.70                   284.10                   219.48                   235.91                   275.02                   280.27                   283.52                   284.94                   219.82                   236.39                   276.03                   281.39                   284.71                   286.15                   219.92                   236.59                   276.66                   282.10                   285.48                   286.94                   220.17                   237.06                   277.92                   283.50                   286.97                   288.46                   220.41                   237.44                   278.89                   284.59                   288.14                   289.66                   219.53                   236.86                   279.39                   285.29                   288.97                   290.53                   216.15                   233.05                   275.08                   280.97                   284.64                   286.21                   215.72                   231.75                   269.28                   274.33                   277.49                   278.88
16.000                   1.5000                   1.5000                   6000.0                   1000.0                   75.000                   235.78                   252.51                   292.30                   297.65                   300.96                   302.38                   235.94                   252.69                   292.57                   297.93                   301.26                   302.68                   236.32                   253.15                   293.32                   298.72                   302.08                   303.52                   236.66                   253.63                   294.34                   299.85                   303.27                   304.73                   236.76                   253.83                   294.99                   300.59                   304.06                   305.55                   236.98                   254.25                   296.17                   301.90                   305.47                   306.98                   237.20                   254.62                   297.15                   303.01                   306.66                   308.21                   236.21                   253.94                   297.56                   303.61                   307.39                   308.98                   232.50                   249.78                   292.87                   298.92                   302.69                   304.28                   231.74                   248.06                   286.30                   291.46                   294.68                   296.08