% Model:              batchmodel_COIL_N_16_COIL_kr_2.25_COIL_kh_2_FUNZ_freq_2000_FUNZ_I_eff_2500.mph
% Version:            COMSOL 6.0.0.318
% Date:               Feb 8 2022, 22:42
% Table:              Tabella 1 - GRIGLIA_T
% COIL_N                 COIL_kr                  COIL_kh                  FUNZ_freq                FUNZ_I_eff               Time (s)                 Temperatura (degC), Point: (0, 0)Temperatura (degC), Point: (15, 0)Temperatura (degC), Point: (25.641, 0)Temperatura (degC), Point: (27.821, 0)Temperatura (degC), Point: (29.128, 0)Temperatura (degC), Point: (29.99, 0)Temperatura (degC), Point: (0, 62.5)Temperatura (degC), Point: (15, 62.5)Temperatura (degC), Point: (25.641, 62.5)Temperatura (degC), Point: (27.821, 62.5)Temperatura (degC), Point: (29.128, 62.5)Temperatura (degC), Point: (29.99, 62.5)Temperatura (degC), Point: (0, 125)Temperatura (degC), Point: (15, 125)Temperatura (degC), Point: (25.641, 125)Temperatura (degC), Point: (27.821, 125)Temperatura (degC), Point: (29.128, 125)Temperatura (degC), Point: (29.99, 125)Temperatura (degC), Point: (0, 187.5)Temperatura (degC), Point: (15, 187.5)Temperatura (degC), Point: (25.641, 187.5)Temperatura (degC), Point: (27.821, 187.5)Temperatura (degC), Point: (29.128, 187.5)Temperatura (degC), Point: (29.99, 187.5)Temperatura (degC), Point: (0, 250)Temperatura (degC), Point: (15, 250)Temperatura (degC), Point: (25.641, 250)Temperatura (degC), Point: (27.821, 250)Temperatura (degC), Point: (29.128, 250)Temperatura (degC), Point: (29.99, 250)Temperatura (degC), Point: (0, 312.5)Temperatura (degC), Point: (15, 312.5)Temperatura (degC), Point: (25.641, 312.5)Temperatura (degC), Point: (27.821, 312.5)Temperatura (degC), Point: (29.128, 312.5)Temperatura (degC), Point: (29.99, 312.5)Temperatura (degC), Point: (0, 375)Temperatura (degC), Point: (15, 375)Temperatura (degC), Point: (25.641, 375)Temperatura (degC), Point: (27.821, 375)Temperatura (degC), Point: (29.128, 375)Temperatura (degC), Point: (29.99, 375)Temperatura (degC), Point: (0, 437.5)Temperatura (degC), Point: (15, 437.5)Temperatura (degC), Point: (25.641, 437.5)Temperatura (degC), Point: (27.821, 437.5)Temperatura (degC), Point: (29.128, 437.5)Temperatura (degC), Point: (29.99, 437.5)Temperatura (degC), Point: (0, 468.75)Temperatura (degC), Point: (15, 468.75)Temperatura (degC), Point: (25.641, 468.75)Temperatura (degC), Point: (27.821, 468.75)Temperatura (degC), Point: (29.128, 468.75)Temperatura (degC), Point: (29.99, 468.75)Temperatura (degC), Point: (0, 492.19)Temperatura (degC), Point: (15, 492.19)Temperatura (degC), Point: (25.641, 492.19)Temperatura (degC), Point: (27.821, 492.19)Temperatura (degC), Point: (29.128, 492.19)Temperatura (degC), Point: (29.99, 492.19)
16.000                   2.2500                   2.0000                   2000.0                   2500.0                   0.0000                   20.000                   20.000                   20.000                   20.000                   20.014                   20.103                   20.000                   20.000                   20.000                   20.000                   20.014                   20.103                   20.000                   20.000                   20.000                   20.000                   20.014                   20.103                   20.000                   20.000                   20.000                   20.000                   20.014                   20.103                   20.000                   20.000                   20.000                   20.000                   20.014                   20.103                   20.000                   20.000                   20.000                   20.000                   20.014                   20.103                   20.000                   20.000                   20.000                   20.000                   20.014                   20.103                   20.000                   20.000                   20.000                   20.000                   20.014                   20.103                   20.000                   20.000                   20.000                   20.000                   20.013                   20.100                   20.000                   20.000                   20.000                   20.000                   20.006                   20.074
16.000                   2.2500                   2.0000                   2000.0                   2500.0                   5.0000                   23.199                   32.538                   71.153                   85.893                   95.957                   100.10                   23.177                   32.468                   70.994                   85.704                   95.779                   99.916                   23.183                   32.491                   70.936                   85.586                   95.627                   99.761                   23.184                   32.494                   71.084                   85.825                   95.853                   99.958                   23.179                   32.474                   70.937                   85.592                   95.628                   99.779                   23.202                   32.565                   71.161                   85.860                   95.903                   100.08                   23.178                   32.475                   70.935                   85.655                   95.810                   99.973                   23.128                   32.309                   70.620                   85.293                   95.343                   99.482                   22.916                   31.546                   67.415                   81.127                   90.528                   94.467                   22.638                   29.415                   54.628                   63.642                   69.744                   72.507
16.000                   2.2500                   2.0000                   2000.0                   2500.0                   10.000                   39.159                   61.555                   118.56                   135.90                   146.98                   151.32                   39.014                   61.237                   117.75                   135.05                   146.21                   150.52                   39.031                   61.249                   117.73                   135.05                   146.26                   150.66                   39.031                   61.248                   117.83                   135.23                   146.18                   150.51                   39.049                   61.324                   118.10                   135.36                   146.42                   150.76                   39.144                   61.508                   118.29                   135.67                   146.94                   151.40                   39.024                   61.241                   117.69                   135.02                   146.29                   150.62                   38.751                   60.793                   117.04                   134.25                   145.28                   149.56                   37.147                   57.341                   108.70                   124.37                   134.54                   138.63                   34.585                   50.140                   86.149                   96.455                   103.07                   105.93
16.000                   2.2500                   2.0000                   2000.0                   2500.0                   15.000                   66.610                   97.520                   163.39                   182.12                   193.83                   198.31                   66.160                   96.670                   161.87                   180.82                   192.88                   197.42                   66.231                   96.814                   162.20                   181.28                   193.45                   197.96                   66.245                   96.853                   162.63                   181.78                   193.66                   198.23                   66.307                   96.967                   162.40                   181.08                   192.88                   197.35                   66.500                   97.305                   163.47                   182.43                   194.35                   198.89                   66.228                   96.812                   162.26                   181.20                   193.18                   197.68                   65.528                   95.852                   160.45                   178.90                   190.56                   194.97                   61.136                   88.449                   146.74                   163.47                   174.09                   178.27                   54.867                   75.797                   116.43                   127.34                   134.27                   137.19
16.000                   2.2500                   2.0000                   2000.0                   2500.0                   20.000                   101.57                   136.59                   207.06                   227.02                   239.47                   244.11                   100.63                   135.05                   204.98                   225.32                   238.25                   242.95                   100.83                   135.46                   205.78                   226.10                   239.03                   243.64                   100.94                   135.75                   207.13                   227.82                   240.90                   245.64                   101.00                   135.75                   206.25                   226.39                   239.21                   243.81                   101.36                   136.39                   208.49                   228.74                   241.34                   245.93                   100.89                   135.62                   206.35                   226.69                   239.36                   244.09                   99.454                   133.68                   202.51                   221.95                   234.26                   238.85                   91.271                   121.76                   183.74                   201.52                   212.72                   217.00                   80.729                   103.95                   146.56                   157.92                   165.10                   168.03
16.000                   2.2500                   2.0000                   2000.0                   2500.0                   25.000                   139.46                   176.45                   251.78                   273.44                   286.87                   291.72                   138.00                   174.54                   250.37                   272.32                   286.12                   290.88                   138.42                   175.30                   251.97                   273.44                   286.96                   291.75                   138.65                   175.69                   252.51                   274.61                   288.48                   293.31                   138.63                   175.54                   252.18                   274.26                   288.24                   293.00                   139.25                   176.62                   254.62                   276.67                   290.35                   295.12                   138.58                   175.59                   252.18                   274.26                   287.70                   292.63                   135.99                   172.08                   245.88                   266.76                   279.78                   284.55                   123.59                   155.50                   221.41                   240.46                   252.42                   256.84                   109.03                   133.07                   177.70                   189.63                   197.13                   200.11
16.000                   2.2500                   2.0000                   2000.0                   2500.0                   30.000                   178.17                   216.85                   296.92                   320.21                   334.76                   339.68                   176.42                   214.86                   295.08                   318.42                   332.97                   337.90                   177.00                   215.70                   296.20                   319.54                   334.08                   339.00                   177.36                   216.20                   297.01                   320.45                   335.06                   339.99                   177.21                   215.91                   296.54                   319.96                   334.54                   339.47                   178.08                   217.23                   298.67                   322.21                   336.84                   341.78                   177.28                   216.15                   297.05                   320.55                   335.18                   340.12                   173.09                   210.80                   288.95                   311.65                   325.86                   330.71                   156.52                   189.74                   258.88                   279.03                   291.78                   296.28                   138.54                   163.35                   209.92                   222.36                   230.18                   233.23
16.000                   2.2500                   2.0000                   2000.0                   2500.0                   35.000                   217.14                   257.80                   343.31                   368.50                   384.04                   389.10                   215.40                   255.89                   341.44                   366.63                   382.18                   387.25                   215.99                   256.66                   342.38                   367.58                   383.13                   388.19                   216.41                   257.19                   343.15                   368.42                   383.99                   389.06                   216.19                   256.87                   342.71                   367.96                   383.53                   388.60                   217.16                   258.18                   344.58                   369.93                   385.54                   390.61                   216.33                   257.15                   343.22                   368.54                   384.15                   389.22                   210.33                   249.89                   333.05                   357.51                   372.67                   377.66                   189.90                   224.56                   297.49                   318.93                   332.41                   337.03                   169.05                   194.72                   243.30                   256.34                   264.52                   267.63
16.000                   2.2500                   2.0000                   2000.0                   2500.0                   40.000                   256.07                   298.72                   389.67                   416.74                   433.26                   438.46                   254.35                   296.91                   387.78                   414.83                   431.36                   436.56                   254.94                   297.60                   388.56                   415.63                   432.17                   437.37                   255.41                   298.16                   389.29                   416.37                   432.90                   438.10                   255.14                   297.81                   388.87                   415.97                   432.51                   437.71                   256.20                   299.10                   390.50                   417.66                   434.23                   439.44                   255.34                   298.12                   389.37                   416.51                   433.09                   438.30                   247.52                   288.95                   377.14                   403.34                   419.44                   424.55                   223.28                   259.38                   336.14                   358.87                   373.08                   377.80                   199.58                   226.13                   276.70                   290.34                   298.89                   302.05
16.000                   2.2500                   2.0000                   2000.0                   2500.0                   45.000                   294.71                   339.47                   435.78                   464.66                   482.07                   487.34                   293.07                   337.80                   434.04                   462.89                   480.31                   485.59                   293.64                   338.42                   434.76                   463.66                   481.12                   486.40                   294.11                   338.94                   435.33                   464.21                   481.63                   486.91                   293.84                   338.63                   435.04                   463.94                   481.39                   486.67                   294.90                   339.86                   436.49                   465.45                   482.93                   488.22                   294.02                   338.90                   435.44                   464.39                   481.87                   487.16                   284.42                   327.84                   421.09                   448.98                   465.92                   471.11                   256.62                   294.29                   375.04                   399.09                   413.98                   418.76                   230.27                   257.76                   310.33                   324.56                   333.43                   336.63
16.000                   2.2500                   2.0000                   2000.0                   2500.0                   50.000                   333.34                   380.22                   481.89                   512.59                   530.88                   536.23                   331.80                   378.68                   480.30                   510.95                   529.26                   534.63                   332.33                   379.24                   480.96                   511.70                   530.07                   535.44                   332.80                   379.72                   481.38                   512.05                   530.36                   535.72                   332.53                   379.46                   481.20                   511.92                   530.27                   535.63                   333.61                   380.62                   482.48                   513.25                   531.63                   537.00                   332.71                   379.68                   481.52                   512.27                   530.65                   536.02                   321.32                   366.73                   465.04                   494.62                   512.41                   517.68                   289.95                   329.19                   413.94                   439.30                   454.87                   459.72                   260.95                   289.39                   343.96                   358.77                   367.98                   371.21
16.000                   2.2500                   2.0000                   2000.0                   2500.0                   55.000                   368.46                   417.10                   523.04                   555.41                   574.40                   579.73                   367.06                   415.74                   521.73                   554.10                   573.16                   578.51                   367.54                   416.24                   522.31                   554.74                   573.86                   579.21                   367.96                   416.65                   522.62                   554.97                   574.02                   579.36                   367.73                   416.43                   522.47                   554.87                   573.95                   579.29                   368.75                   417.52                   523.71                   556.19                   575.32                   580.67                   367.86                   416.60                   522.79                   555.26                   574.38                   579.73                   355.30                   402.51                   505.19                   536.40                   554.91                   560.18                   321.54                   362.27                   450.70                   477.26                   493.40                   498.27                   290.60                   319.86                   376.10                   391.39                   400.84                   404.06
16.000                   2.2500                   2.0000                   2000.0                   2500.0                   60.000                   403.39                   453.77                   563.92                   597.95                   617.64                   622.94                   402.14                   452.58                   562.90                   596.98                   616.78                   622.11                   402.57                   453.03                   563.39                   597.52                   617.38                   622.70                   402.93                   453.36                   563.59                   597.63                   617.41                   622.72                   402.74                   453.19                   563.48                   597.54                   617.34                   622.66                   403.69                   454.21                   564.68                   598.86                   618.74                   624.06                   402.82                   453.32                   563.81                   597.97                   617.84                   623.16                   389.13                   438.13                   545.13                   577.97                   597.20                   602.46                   353.04                   395.25                   487.35                   515.10                   531.80                   536.68                   320.20                   350.26                   408.16                   423.92                   433.61                   436.81
16.000                   2.2500                   2.0000                   2000.0                   2500.0                   65.000                   438.32                   490.44                   604.79                   640.49                   660.88                   666.15                   437.22                   489.43                   604.07                   639.87                   660.40                   665.70                   437.59                   489.81                   604.47                   640.30                   660.89                   666.19                   437.90                   490.08                   604.56                   640.29                   660.79                   666.08                   437.76                   489.95                   604.49                   640.22                   660.74                   666.04                   438.64                   490.90                   605.65                   641.54                   662.15                   667.45                   437.78                   490.04                   604.82                   640.69                   661.29                   666.59                   422.95                   473.74                   585.07                   619.54                   639.48                   644.74                   384.54                   428.23                   523.99                   552.94                   570.20                   575.09                   349.79                   380.66                   440.22                   456.45                   466.37                   469.57
16.000                   2.2500                   2.0000                   2000.0                   2500.0                   70.000                   473.24                   527.10                   645.67                   683.04                   704.11                   709.36                   472.30                   526.28                   645.24                   682.75                   704.02                   709.30                   472.61                   526.60                   645.56                   683.07                   704.40                   709.68                   472.87                   526.79                   645.54                   682.95                   704.18                   709.44                   472.77                   526.72                   645.50                   682.89                   704.13                   709.41                   473.58                   527.59                   646.62                   684.22                   705.57                   710.84                   472.74                   526.76                   645.83                   683.41                   704.75                   710.02                   456.78                   509.36                   625.01                   661.11                   681.77                   687.02                   416.04                   461.20                   560.63                   590.77                   608.61                   613.50                   379.38                   411.06                   472.28                   488.98                   499.14                   502.32
16.000                   2.2500                   2.0000                   2000.0                   2500.0                   75.000                   505.43                   559.90                   680.69                   720.26                   742.31                   747.57                   504.61                   559.21                   680.41                   720.14                   742.40                   747.70                   504.88                   559.48                   680.68                   720.40                   742.72                   748.01                   505.10                   559.63                   680.63                   720.26                   742.48                   747.76                   505.02                   559.57                   680.56                   720.13                   742.34                   747.63                   505.79                   560.41                   681.77                   721.63                   743.98                   749.27                   504.95                   559.60                   680.97                   720.80                   743.14                   748.43                   488.15                   541.45                   658.92                   696.42                   717.87                   723.13                   445.83                   492.08                   594.10                   625.30                   643.59                   648.46                   407.69                   440.14                   502.87                   519.99                   530.35                   533.49