% Model:              batchmodel_COIL_N_16_COIL_kr_2.25_COIL_kh_1.5_FUNZ_freq_2000_FUNZ_I_eff_4000.mph
% Version:            COMSOL 6.0.0.318
% Date:               Feb 8 2022, 22:30
% Table:              Tabella 1 - GRIGLIA_T
% COIL_N                 COIL_kr                  COIL_kh                  FUNZ_freq                FUNZ_I_eff               Time (s)                 Temperatura (degC), Point: (0, 0)Temperatura (degC), Point: (15, 0)Temperatura (degC), Point: (25.641, 0)Temperatura (degC), Point: (27.821, 0)Temperatura (degC), Point: (29.128, 0)Temperatura (degC), Point: (29.99, 0)Temperatura (degC), Point: (0, 62.5)Temperatura (degC), Point: (15, 62.5)Temperatura (degC), Point: (25.641, 62.5)Temperatura (degC), Point: (27.821, 62.5)Temperatura (degC), Point: (29.128, 62.5)Temperatura (degC), Point: (29.99, 62.5)Temperatura (degC), Point: (0, 125)Temperatura (degC), Point: (15, 125)Temperatura (degC), Point: (25.641, 125)Temperatura (degC), Point: (27.821, 125)Temperatura (degC), Point: (29.128, 125)Temperatura (degC), Point: (29.99, 125)Temperatura (degC), Point: (0, 187.5)Temperatura (degC), Point: (15, 187.5)Temperatura (degC), Point: (25.641, 187.5)Temperatura (degC), Point: (27.821, 187.5)Temperatura (degC), Point: (29.128, 187.5)Temperatura (degC), Point: (29.99, 187.5)Temperatura (degC), Point: (0, 250)Temperatura (degC), Point: (15, 250)Temperatura (degC), Point: (25.641, 250)Temperatura (degC), Point: (27.821, 250)Temperatura (degC), Point: (29.128, 250)Temperatura (degC), Point: (29.99, 250)Temperatura (degC), Point: (0, 312.5)Temperatura (degC), Point: (15, 312.5)Temperatura (degC), Point: (25.641, 312.5)Temperatura (degC), Point: (27.821, 312.5)Temperatura (degC), Point: (29.128, 312.5)Temperatura (degC), Point: (29.99, 312.5)Temperatura (degC), Point: (0, 375)Temperatura (degC), Point: (15, 375)Temperatura (degC), Point: (25.641, 375)Temperatura (degC), Point: (27.821, 375)Temperatura (degC), Point: (29.128, 375)Temperatura (degC), Point: (29.99, 375)Temperatura (degC), Point: (0, 437.5)Temperatura (degC), Point: (15, 437.5)Temperatura (degC), Point: (25.641, 437.5)Temperatura (degC), Point: (27.821, 437.5)Temperatura (degC), Point: (29.128, 437.5)Temperatura (degC), Point: (29.99, 437.5)Temperatura (degC), Point: (0, 468.75)Temperatura (degC), Point: (15, 468.75)Temperatura (degC), Point: (25.641, 468.75)Temperatura (degC), Point: (27.821, 468.75)Temperatura (degC), Point: (29.128, 468.75)Temperatura (degC), Point: (29.99, 468.75)Temperatura (degC), Point: (0, 492.19)Temperatura (degC), Point: (15, 492.19)Temperatura (degC), Point: (25.641, 492.19)Temperatura (degC), Point: (27.821, 492.19)Temperatura (degC), Point: (29.128, 492.19)Temperatura (degC), Point: (29.99, 492.19)
16.000                   2.2500                   1.5000                   2000.0                   4000.0                   0.0000                   20.000                   20.000                   20.000                   20.000                   20.040                   20.174                   20.000                   20.000                   20.000                   20.000                   20.040                   20.174                   20.000                   20.000                   20.000                   20.000                   20.040                   20.174                   20.000                   20.000                   20.000                   20.000                   20.040                   20.174                   20.000                   20.000                   20.000                   20.000                   20.041                   20.175                   20.000                   20.000                   20.000                   20.000                   20.041                   20.175                   20.000                   20.000                   20.000                   20.000                   20.041                   20.176                   20.000                   20.000                   20.000                   20.000                   20.041                   20.177                   20.000                   20.000                   20.000                   20.000                   20.039                   20.172                   20.000                   20.000                   20.000                   20.000                   20.027                   20.141
16.000                   2.2500                   1.5000                   2000.0                   4000.0                   5.0000                   25.445                   46.796                   134.54                   166.84                   186.75                   194.53                   25.493                   47.113                   137.26                   171.92                   194.68                   202.35                   25.458                   46.862                   135.08                   168.19                   189.67                   197.47                   25.447                   46.768                   133.84                   166.06                   186.75                   194.37                   25.443                   46.848                   135.70                   169.57                   191.52                   199.11                   25.474                   47.054                   137.29                   171.99                   194.90                   202.64                   25.541                   47.453                   138.95                   173.61                   196.54                   204.26                   25.613                   47.898                   141.00                   176.15                   199.16                   206.85                   25.283                   46.157                   133.40                   166.58                   188.41                   195.85                   29.703                   47.372                   112.65                   135.54                   150.56                   156.20
16.000                   2.2500                   1.5000                   2000.0                   4000.0                   10.000                   63.842                   114.42                   244.57                   288.18                   315.49                   323.69                   64.017                   114.76                   245.47                   289.24                   316.21                   324.61                   63.921                   114.58                   244.72                   287.94                   314.76                   322.95                   63.708                   114.12                   244.33                   288.03                   315.24                   323.55                   63.670                   114.11                   244.35                   287.90                   315.00                   323.49                   63.926                   114.77                   246.14                   289.85                   316.82                   325.39                   64.172                   115.26                   246.93                   290.67                   317.38                   325.77                   64.351                   115.64                   247.73                   291.83                   318.79                   327.38                   61.676                   109.51                   231.56                   271.55                   296.17                   304.13                   65.972                   104.39                   194.42                   221.66                   238.93                   244.82
16.000                   2.2500                   1.5000                   2000.0                   4000.0                   15.000                   127.93                   194.66                   355.24                   408.42                   439.70                   448.78                   128.10                   194.90                   355.64                   408.81                   440.07                   449.18                   127.96                   194.67                   355.19                   408.30                   439.55                   448.64                   127.63                   194.33                   355.23                   408.54                   439.87                   448.99                   127.43                   194.00                   354.51                   407.68                   438.99                   448.11                   127.99                   194.94                   356.29                   409.67                   441.04                   450.18                   128.17                   195.16                   356.69                   410.18                   441.59                   450.72                   127.78                   194.47                   354.53                   407.20                   438.16                   447.21                   120.79                   182.09                   327.30                   374.48                   402.78                   411.27                   119.13                   168.24                   273.84                   305.24                   324.59                   330.89
16.000                   2.2500                   1.5000                   2000.0                   4000.0                   20.000                   200.21                   278.05                   465.95                   528.47                   563.25                   572.97                   200.31                   278.13                   465.88                   528.58                   563.64                   573.24                   200.07                   277.70                   464.53                   526.78                   561.31                   570.88                   199.80                   277.61                   465.25                   527.76                   562.73                   572.38                   199.52                   277.29                   465.29                   528.15                   563.49                   573.15                   200.21                   278.24                   466.69                   529.65                   564.95                   574.59                   200.26                   278.22                   466.42                   529.29                   564.61                   574.27                   198.61                   275.74                   461.10                   522.65                   557.27                   566.76                   186.44                   256.64                   423.04                   477.73                   509.18                   518.06                   177.28                   233.16                   350.19                   384.64                   405.34                   411.87
16.000                   2.2500                   1.5000                   2000.0                   4000.0                   25.000                   274.39                   360.64                   570.91                   641.84                   680.40                   690.38                   274.43                   360.64                   570.83                   641.75                   680.31                   690.29                   274.10                   360.15                   569.92                   640.76                   679.27                   689.25                   273.94                   360.18                   570.46                   641.44                   680.04                   690.03                   273.66                   359.92                   570.50                   641.63                   680.29                   690.30                   274.36                   360.79                   571.74                   643.00                   681.71                   691.73                   274.29                   360.65                   571.47                   642.71                   681.45                   691.47                   271.05                   356.09                   562.46                   631.75                   669.40                   679.18                   253.67                   330.86                   516.37                   578.11                   612.39                   621.55                   236.72                   297.63                   426.21                   464.75                   487.36                   494.00
16.000                   2.2500                   1.5000                   2000.0                   4000.0                   30.000                   346.25                   437.76                   657.84                   732.83                   772.79                   782.75                   346.25                   437.75                   657.90                   732.86                   772.81                   782.77                   345.88                   437.28                   657.28                   732.16                   772.11                   782.10                   345.79                   437.33                   657.52                   732.54                   772.57                   782.55                   345.55                   437.16                   657.68                   732.90                   772.95                   782.95                   346.20                   437.92                   658.77                   734.07                   774.20                   784.19                   346.05                   437.69                   658.33                   733.50                   773.67                   783.70                   341.37                   431.78                   649.14                   723.08                   762.09                   771.75                   319.67                   402.65                   603.23                   670.97                   707.77                   717.14                   296.49                   361.76                   500.53                   542.39                   566.48                   573.24
16.000                   2.2500                   1.5000                   2000.0                   4000.0                   35.000                   413.54                   508.12                   739.21                   831.42                   879.22                   889.78                   413.54                   508.14                   739.54                   832.01                   879.90                   890.48                   413.16                   507.70                   739.01                   831.36                   879.23                   889.84                   413.11                   507.74                   739.14                   831.54                   879.50                   890.11                   412.92                   507.68                   739.66                   832.56                   880.56                   891.16                   413.51                   508.39                   741.11                   834.60                   882.74                   893.34                   413.30                   508.10                   740.49                   833.55                   881.71                   892.36                   407.49                   500.98                   728.43                   817.09                   864.15                   874.67                   382.47                   468.32                   672.19                   740.68                   778.07                   787.34                   354.94                   423.12                   567.49                   610.45                   634.82                   641.40
16.000                   2.2500                   1.5000                   2000.0                   4000.0                   40.000                   475.47                   572.30                   829.77                   932.92                   978.68                   987.36                   475.49                   572.37                   830.34                   933.70                   979.54                   988.23                   475.11                   571.95                   829.81                   933.26                   979.13                   987.83                   475.08                   572.01                   830.32                   933.91                   979.86                   988.57                   474.96                   572.05                   831.28                   935.23                   981.20                   989.89                   475.50                   572.72                   833.06                   937.34                   983.34                   992.00                   475.27                   572.49                   833.19                   937.62                   983.73                   992.42                   468.37                   564.22                   815.60                   917.94                   964.31                   973.32                   440.29                   527.24                   732.81                   809.93                   851.03                   860.24                   409.92                   479.09                   623.16                   665.78                   689.59                   695.71
16.000                   2.2500                   1.5000                   2000.0                   4000.0                   45.000                   531.99                   626.61                   879.10                   962.66                   998.31                   1004.4                   532.03                   626.68                   878.65                   961.78                   997.27                   1003.3                   531.69                   626.37                   878.57                   961.90                   997.46                   1003.5                   531.71                   626.54                   879.11                   962.30                   997.78                   1003.8                   531.73                   626.86                   880.05                   962.92                   998.18                   1004.1                   532.34                   627.78                   881.74                   963.91                   998.76                   1004.6                   532.19                   627.82                   882.29                   964.10                   998.73                   1004.5                   524.47                   619.32                   870.50                   955.05                   991.35                   997.64                   492.86                   578.45                   781.66                   858.24                   895.99                   903.81                   460.03                   528.08                   663.73                   702.20                   723.33                   728.53
16.000                   2.2500                   1.5000                   2000.0                   4000.0                   50.000                   583.34                   672.56                   904.57                   968.46                   995.83                   1000.1                   583.43                   672.63                   903.23                   966.35                   993.42                   997.63                   583.16                   672.50                   903.80                   967.09                   994.20                   998.41                   583.31                   672.94                   904.67                   967.48                   994.32                   998.46                   583.57                   673.76                   906.64                   968.67                   995.03                   999.04                   584.38                   675.28                   910.00                   970.66                   996.18                   999.97                   584.39                   675.78                   912.10                   972.16                   997.21                   1000.9                   576.35                   668.15                   910.22                   975.60                   1002.9                   1007.0                   541.26                   623.45                   825.50                   897.79                   931.79                   938.29                   506.22                   571.46                   696.28                   730.65                   749.78                   754.35
16.000                   2.2500                   1.5000                   2000.0                   4000.0                   55.000                   627.16                   708.68                   919.52                   971.01                   993.46                   996.67                   627.33                   708.77                   918.04                   968.74                   990.86                   994.03                   627.18                   708.93                   919.47                   970.24                   992.34                   995.48                   627.53                   709.81                   921.58                   971.72                   993.40                   996.44                   628.14                   711.44                   926.22                   975.44                   996.44                   999.26                   629.32                   713.95                   933.35                   981.20                   1001.1                   1003.6                   629.56                   715.09                   937.81                   985.21                   1004.5                   1006.8                   622.06                   709.95                   950.94                   1005.0                   1025.5                   1027.6                   583.98                   661.85                   865.46                   933.70                   964.77                   970.28                   547.52                   608.36                   722.74                   754.94                   773.28                   777.49
16.000                   2.2500                   1.5000                   2000.0                   4000.0                   60.000                   664.28                   738.34                   933.18                   975.98                   994.82                   997.24                   664.53                   738.55                   932.19                   974.29                   992.83                   995.20                   664.51                   739.10                   934.55                   976.63                   995.05                   997.37                   665.11                   740.67                   938.58                   979.99                   997.89                   1000.0                   666.11                   743.58                   946.75                   987.35                   1004.4                   1006.2                   667.68                   747.63                   958.18                   997.89                   1013.6                   1014.9                   668.19                   749.69                   964.82                   1004.3                   1019.3                   1020.4                   661.96                   748.59                   998.21                   1043.3                   1056.8                   1056.7                   621.50                   695.10                   901.77                   965.05                   993.23                   997.77                   584.33                   640.45                   746.15                   777.85                   795.87                   799.80
16.000                   2.2500                   1.5000                   2000.0                   4000.0                   65.000                   692.21                   766.24                   947.87                   983.97                   999.74                   1001.4                   692.52                   766.77                   947.72                   983.28                   998.78                   1000.4                   692.63                   767.93                   951.08                   986.63                   1001.9                   1003.5                   693.40                   770.72                   957.32                   992.43                   1007.1                   1008.4                   694.68                   775.67                   969.01                   1003.7                   1017.3                   1018.2                   696.50                   782.05                   983.60                   1017.5                   1029.6                   1029.8                   697.18                   785.26                   991.62                   1025.3                   1036.6                   1036.5                   693.06                   791.20                   1036.5                   1070.9                   1078.9                   1077.2                   652.27                   722.76                   927.53                   982.84                   1007.0                   1010.4                   614.90                   666.59                   766.57                   797.73                   814.92                   818.46
16.000                   2.2500                   1.5000                   2000.0                   4000.0                   70.000                   716.24                   794.38                   963.19                   993.19                   1006.0                   1006.9                   716.59                   795.32                   963.96                   993.59                   1006.2                   1007.0                   716.82                   797.17                   968.33                   998.01                   1010.3                   1011.1                   717.73                   801.41                   976.84                   1006.4                   1018.0                   1018.5                   719.21                   808.68                   991.85                   1021.4                   1031.7                   1031.6                   721.17                   817.56                   1008.9                   1037.6                   1046.2                   1045.4                   721.98                   821.95                   1017.9                   1046.1                   1053.9                   1052.7                   720.29                   836.27                   1067.5                   1091.0                   1094.5                   1091.6                   680.21                   748.31                   947.95                   993.91                   1013.4                   1015.7                   642.81                   690.22                   785.67                   815.94                   831.98                   835.09
16.000                   2.2500                   1.5000                   2000.0                   4000.0                   75.000                   735.67                   826.53                   981.73                   1007.0                   1016.9                   1016.9                   736.18                   827.86                   983.21                   1008.2                   1017.9                   1017.9                   736.64                   830.18                   988.37                   1013.6                   1022.9                   1022.8                   738.08                   835.40                   998.25                   1023.4                   1032.0                   1031.5                   740.45                   844.03                   1014.2                   1039.0                   1046.4                   1045.3                   743.57                   854.13                   1030.7                   1054.2                   1060.1                   1058.3                   744.97                   859.10                   1039.3                   1062.2                   1067.4                   1065.4                   746.25                   880.52                   1083.9                   1100.8                   1102.1                   1098.6                   701.53                   774.49                   967.28                   1007.2                   1023.0                   1024.3                   665.15                   708.56                   803.06                   831.79                   846.76                   849.50