% Model:              batchmodel_COIL_N_16_COIL_kr_3_COIL_kh_1.5_FUNZ_freq_6000_FUNZ_I_eff_1000.mph
% Version:            COMSOL 6.0.0.318
% Date:               Feb 8 2022, 23:29
% Table:              Tabella 1 - GRIGLIA_T
% COIL_N                 COIL_kr                  COIL_kh                  FUNZ_freq                FUNZ_I_eff               Time (s)                 Temperatura (degC), Point: (0, 0)Temperatura (degC), Point: (15, 0)Temperatura (degC), Point: (27.483, 0)Temperatura (degC), Point: (28.742, 0)Temperatura (degC), Point: (29.497, 0)Temperatura (degC), Point: (29.99, 0)Temperatura (degC), Point: (0, 62.5)Temperatura (degC), Point: (15, 62.5)Temperatura (degC), Point: (27.483, 62.5)Temperatura (degC), Point: (28.742, 62.5)Temperatura (degC), Point: (29.497, 62.5)Temperatura (degC), Point: (29.99, 62.5)Temperatura (degC), Point: (0, 125)Temperatura (degC), Point: (15, 125)Temperatura (degC), Point: (27.483, 125)Temperatura (degC), Point: (28.742, 125)Temperatura (degC), Point: (29.497, 125)Temperatura (degC), Point: (29.99, 125)Temperatura (degC), Point: (0, 187.5)Temperatura (degC), Point: (15, 187.5)Temperatura (degC), Point: (27.483, 187.5)Temperatura (degC), Point: (28.742, 187.5)Temperatura (degC), Point: (29.497, 187.5)Temperatura (degC), Point: (29.99, 187.5)Temperatura (degC), Point: (0, 250)Temperatura (degC), Point: (15, 250)Temperatura (degC), Point: (27.483, 250)Temperatura (degC), Point: (28.742, 250)Temperatura (degC), Point: (29.497, 250)Temperatura (degC), Point: (29.99, 250)Temperatura (degC), Point: (0, 312.5)Temperatura (degC), Point: (15, 312.5)Temperatura (degC), Point: (27.483, 312.5)Temperatura (degC), Point: (28.742, 312.5)Temperatura (degC), Point: (29.497, 312.5)Temperatura (degC), Point: (29.99, 312.5)Temperatura (degC), Point: (0, 375)Temperatura (degC), Point: (15, 375)Temperatura (degC), Point: (27.483, 375)Temperatura (degC), Point: (28.742, 375)Temperatura (degC), Point: (29.497, 375)Temperatura (degC), Point: (29.99, 375)Temperatura (degC), Point: (0, 437.5)Temperatura (degC), Point: (15, 437.5)Temperatura (degC), Point: (27.483, 437.5)Temperatura (degC), Point: (28.742, 437.5)Temperatura (degC), Point: (29.497, 437.5)Temperatura (degC), Point: (29.99, 437.5)Temperatura (degC), Point: (0, 468.75)Temperatura (degC), Point: (15, 468.75)Temperatura (degC), Point: (27.483, 468.75)Temperatura (degC), Point: (28.742, 468.75)Temperatura (degC), Point: (29.497, 468.75)Temperatura (degC), Point: (29.99, 468.75)Temperatura (degC), Point: (0, 492.19)Temperatura (degC), Point: (15, 492.19)Temperatura (degC), Point: (27.483, 492.19)Temperatura (degC), Point: (28.742, 492.19)Temperatura (degC), Point: (29.497, 492.19)Temperatura (degC), Point: (29.99, 492.19)
16.000                   3.0000                   1.5000                   6000.0                   1000.0                   0.0000                   20.000                   20.000                   20.000                   20.000                   20.003                   20.090                   20.000                   20.000                   20.000                   20.000                   20.003                   20.090                   20.000                   20.000                   20.000                   20.000                   20.003                   20.090                   20.000                   20.000                   20.000                   20.000                   20.003                   20.091                   20.000                   20.000                   20.000                   20.000                   20.003                   20.091                   20.000                   20.000                   20.000                   20.000                   20.003                   20.091                   20.000                   20.000                   20.000                   20.000                   20.003                   20.091                   20.000                   20.000                   20.000                   20.000                   20.003                   20.090                   20.000                   20.000                   20.000                   20.000                   20.002                   20.085                   20.000                   20.000                   20.000                   20.000                   20.001                   20.064
16.000                   3.0000                   1.5000                   6000.0                   1000.0                   5.0000                   21.086                   26.235                   53.741                   57.959                   60.490                   61.708                   21.067                   26.113                   53.133                   57.317                   59.839                   61.055                   21.072                   26.146                   53.285                   57.478                   60.002                   61.219                   21.077                   26.197                   53.595                   57.799                   60.327                   61.544                   21.088                   26.231                   53.440                   57.617                   60.137                   61.353                   21.084                   26.209                   53.377                   57.551                   60.068                   61.282                   21.093                   26.236                   53.420                   57.600                   60.122                   61.338                   20.998                   25.474                   48.641                   52.480                   54.875                   56.058                   20.860                   24.629                   44.209                   47.589                   49.729                   50.810                   20.999                   24.370                   38.372                   40.660                   42.114                   42.883
16.000                   3.0000                   1.5000                   6000.0                   1000.0                   10.000                   29.195                   39.925                   67.650                   71.285                   73.640                   74.827                   29.079                   39.676                   67.304                   70.949                   73.304                   74.491                   29.147                   39.809                   67.515                   71.155                   73.510                   74.698                   29.169                   39.881                   67.683                   71.339                   73.701                   74.889                   29.193                   39.894                   67.737                   71.423                   73.799                   74.992                   29.161                   39.828                   67.623                   71.310                   73.687                   74.879                   29.263                   40.003                   67.920                   71.608                   73.984                   75.175                   28.315                   37.892                   64.464                   68.171                   70.532                   71.711                   27.050                   35.174                   58.695                   62.083                   64.234                   65.316                   26.446                   32.968                   50.224                   52.578                   54.050                   54.818
16.000                   3.0000                   1.5000                   6000.0                   1000.0                   15.000                   41.014                   53.756                   82.700                   86.552                   89.010                   90.223                   40.833                   53.489                   82.460                   86.322                   88.783                   89.996                   40.959                   53.669                   82.681                   86.542                   89.004                   90.217                   40.993                   53.727                   82.724                   86.587                   89.050                   90.264                   41.017                   53.740                   82.801                   86.680                   89.150                   90.366                   40.969                   53.668                   82.708                   86.589                   89.061                   90.277                   41.176                   53.946                   83.088                   86.972                   89.444                   90.661                   39.314                   51.138                   79.736                   83.609                   86.049                   87.245                   36.504                   46.694                   72.218                   75.728                   77.933                   79.029                   34.587                   42.645                   61.353                   63.754                   65.241                   66.010
16.000                   3.0000                   1.5000                   6000.0                   1000.0                   20.000                   54.459                   67.846                   97.980                   102.05                   104.61                   105.85                   54.253                   67.602                   97.788                   101.87                   104.43                   105.67                   54.414                   67.796                   97.999                   102.08                   104.64                   105.88                   54.458                   67.845                   98.006                   102.08                   104.65                   105.89                   54.479                   67.861                   98.067                   102.15                   104.71                   105.95                   54.430                   67.800                   98.006                   102.09                   104.66                   105.90                   54.707                   68.128                   98.392                   102.48                   105.05                   106.29                   52.020                   64.776                   94.576                   98.590                   101.10                   102.31                   47.565                   58.679                   85.255                   88.859                   91.111                   92.217                   44.219                   53.000                   72.382                   74.811                   76.311                   77.081
16.000                   3.0000                   1.5000                   6000.0                   1000.0                   25.000                   68.735                   82.346                   113.48                   117.72                   120.37                   121.63                   68.532                   82.134                   113.32                   117.56                   120.21                   121.48                   68.706                   82.324                   113.51                   117.76                   120.41                   121.67                   68.757                   82.372                   113.52                   117.76                   120.41                   121.68                   68.775                   82.388                   113.56                   117.81                   120.46                   121.72                   68.731                   82.343                   113.53                   117.78                   120.43                   121.69                   69.023                   82.663                   113.87                   118.12                   120.77                   122.04                   65.546                   78.691                   109.31                   113.44                   116.01                   117.25                   59.484                   70.999                   98.200                   101.88                   104.18                   105.30                   54.819                   63.916                   83.622                   86.074                   87.585                   88.356
16.000                   3.0000                   1.5000                   6000.0                   1000.0                   30.000                   83.327                   97.045                   129.08                   133.47                   136.19                   137.48                   83.137                   96.866                   128.94                   133.33                   136.05                   137.34                   83.314                   97.046                   129.12                   133.51                   136.24                   137.52                   83.371                   97.097                   129.14                   133.53                   136.25                   137.54                   83.385                   97.112                   129.17                   133.55                   136.28                   137.56                   83.351                   97.083                   129.15                   133.54                   136.27                   137.56                   83.629                   97.369                   129.44                   133.82                   136.55                   137.84                   79.373                   92.724                   124.01                   128.25                   130.89                   132.14                   71.733                   83.462                   111.14                   114.89                   117.23                   118.36                   65.819                   75.079                   94.984                   97.455                   98.978                   99.751
16.000                   3.0000                   1.5000                   6000.0                   1000.0                   35.000                   98.052                   111.90                   144.82                   149.34                   152.15                   153.46                   97.877                   111.75                   144.70                   149.22                   152.02                   153.33                   98.054                   111.92                   144.86                   149.39                   152.19                   153.50                   98.117                   111.98                   144.89                   149.42                   152.22                   153.53                   98.127                   111.99                   144.91                   149.43                   152.23                   153.54                   98.102                   111.97                   144.92                   149.44                   152.24                   153.55                   98.346                   112.21                   145.12                   149.64                   152.44                   153.75                   93.279                   106.83                   138.79                   143.13                   145.83                   147.10                   84.091                   96.015                   124.15                   127.98                   130.36                   131.51                   76.985                   86.383                   106.47                   108.97                   110.50                   111.28
16.000                   3.0000                   1.5000                   6000.0                   1000.0                   40.000                   113.27                   127.33                   161.06                   165.71                   168.58                   169.91                   113.11                   127.20                   160.95                   165.60                   168.47                   169.80                   113.28                   127.36                   161.11                   165.75                   168.63                   169.96                   113.35                   127.42                   161.15                   165.79                   168.67                   170.00                   113.35                   127.43                   161.16                   165.80                   168.68                   170.01                   113.33                   127.42                   161.17                   165.81                   168.69                   170.02                   113.47                   127.54                   161.25                   165.89                   168.76                   170.09                   107.48                   121.21                   153.82                   158.26                   161.02                   162.31                   96.852                   108.90                   137.48                   141.38                   143.81                   144.96                   88.767                   98.208                   118.44                   120.96                   122.50                   123.28
16.000                   3.0000                   1.5000                   6000.0                   1000.0                   45.000                   128.48                   142.76                   177.31                   182.07                   185.02                   186.37                   128.35                   142.65                   177.21                   181.97                   184.92                   186.27                   128.51                   142.80                   177.36                   182.12                   185.07                   186.42                   128.57                   142.86                   177.41                   182.17                   185.12                   186.47                   128.58                   142.87                   177.42                   182.17                   185.12                   186.47                   128.56                   142.87                   177.43                   182.19                   185.14                   186.49                   128.60                   142.88                   177.38                   182.13                   185.08                   186.43                   121.67                   135.59                   168.84                   173.39                   176.21                   177.52                   109.61                   121.78                   150.81                   154.78                   157.25                   158.42                   100.55                   110.03                   130.41                   132.94                   134.51                   135.29
16.000                   3.0000                   1.5000                   6000.0                   1000.0                   50.000                   143.70                   158.19                   193.55                   198.43                   201.45                   202.83                   143.58                   158.10                   193.47                   198.35                   201.37                   202.74                   143.73                   158.24                   193.60                   198.48                   201.51                   202.88                   143.80                   158.30                   193.67                   198.54                   201.57                   202.94                   143.81                   158.31                   193.67                   198.54                   201.57                   202.94                   143.79                   158.31                   193.69                   198.56                   201.59                   202.96                   143.73                   158.21                   193.51                   198.38                   201.40                   202.77                   135.87                   149.97                   183.87                   188.51                   191.40                   192.73                   122.37                   134.66                   164.14                   168.18                   170.69                   171.88                   112.33                   121.86                   142.37                   144.93                   146.51                   147.29
16.000                   3.0000                   1.5000                   6000.0                   1000.0                   55.000                   158.92                   173.62                   209.80                   214.79                   217.89                   219.28                   158.82                   173.56                   209.73                   214.72                   217.82                   219.21                   158.96                   173.68                   209.85                   214.85                   217.94                   219.34                   159.03                   173.75                   209.92                   214.92                   218.02                   219.41                   159.03                   173.75                   209.92                   214.91                   218.01                   219.40                   159.02                   173.76                   209.94                   214.94                   218.03                   219.43                   158.86                   173.55                   209.64                   214.62                   217.72                   219.11                   150.07                   164.35                   198.90                   203.64                   206.59                   207.93                   135.14                   147.54                   177.46                   181.58                   184.14                   185.34                   124.11                   133.68                   154.34                   156.92                   158.51                   159.30
16.000                   3.0000                   1.5000                   6000.0                   1000.0                   60.000                   174.26                   189.22                   226.24                   231.36                   234.53                   235.94                   174.17                   189.17                   226.19                   231.30                   234.47                   235.89                   174.31                   189.29                   226.30                   231.41                   234.59                   236.00                   174.38                   189.35                   226.38                   231.49                   234.67                   236.08                   174.38                   189.36                   226.37                   231.48                   234.66                   236.07                   174.37                   189.36                   226.39                   231.51                   234.68                   236.09                   174.08                   189.02                   225.94                   231.05                   234.22                   235.63                   164.32                   178.81                   214.04                   218.89                   221.91                   223.27                   147.99                   160.54                   190.93                   195.11                   197.72                   198.93                   136.06                   145.67                   166.48                   169.09                   170.69                   171.48
16.000                   3.0000                   1.5000                   6000.0                   1000.0                   65.000                   189.84                   205.15                   243.07                   248.31                   251.57                   253.00                   189.77                   205.10                   243.02                   248.27                   251.52                   252.96                   189.89                   205.21                   243.13                   248.37                   251.63                   253.06                   189.96                   205.28                   243.21                   248.45                   251.71                   253.15                   189.96                   205.28                   243.20                   248.45                   251.70                   253.14                   189.95                   205.28                   243.21                   248.46                   251.72                   253.15                   189.49                   204.77                   242.58                   247.82                   251.07                   252.50                   178.67                   193.42                   229.43                   234.39                   237.48                   238.86                   161.04                   173.73                   204.65                   208.92                   211.58                   212.81                   148.31                   157.97                   178.95                   181.59                   183.21                   184.01
16.000                   3.0000                   1.5000                   6000.0                   1000.0                   70.000                   205.42                   221.07                   259.89                   265.27                   268.61                   270.06                   205.36                   221.03                   259.86                   265.23                   268.57                   270.03                   205.48                   221.13                   259.96                   265.33                   268.67                   270.13                   205.55                   221.20                   260.04                   265.41                   268.75                   270.21                   205.55                   221.20                   260.03                   265.41                   268.75                   270.21                   205.53                   221.20                   260.04                   265.41                   268.75                   270.21                   204.91                   220.51                   259.22                   264.58                   267.92                   269.37                   193.02                   208.03                   244.81                   249.88                   253.05                   254.45                   174.08                   186.93                   218.37                   222.72                   225.44                   226.68                   160.57                   170.27                   191.43                   194.09                   195.74                   196.53
16.000                   3.0000                   1.5000                   6000.0                   1000.0                   75.000                   221.00                   236.99                   276.72                   282.22                   285.65                   287.13                   220.96                   236.96                   276.69                   282.19                   285.62                   287.10                   221.06                   237.06                   276.78                   282.29                   285.71                   287.19                   221.13                   237.13                   276.87                   282.37                   285.80                   287.28                   221.13                   237.13                   276.87                   282.37                   285.80                   287.27                   221.11                   237.11                   276.86                   282.36                   285.79                   287.27                   220.32                   236.26                   275.86                   281.35                   284.76                   286.24                   207.38                   222.64                   260.19                   265.38                   268.62                   270.04                   187.13                   200.13                   232.10                   236.53                   239.30                   240.55                   172.83                   182.58                   203.91                   206.60                   208.26                   209.06