% Model:              batchmodel_COIL_N_16_COIL_kr_2.25_COIL_kh_1_FUNZ_freq_6000_FUNZ_I_eff_2500.mph
% Version:            COMSOL 6.0.0.318
% Date:               Feb 8 2022, 22:13
% Table:              Tabella 1 - GRIGLIA_T
% COIL_N                 COIL_kr                  COIL_kh                  FUNZ_freq                FUNZ_I_eff               Time (s)                 Temperatura (degC), Point: (0, 0)Temperatura (degC), Point: (15, 0)Temperatura (degC), Point: (27.483, 0)Temperatura (degC), Point: (28.742, 0)Temperatura (degC), Point: (29.497, 0)Temperatura (degC), Point: (29.99, 0)Temperatura (degC), Point: (0, 62.5)Temperatura (degC), Point: (15, 62.5)Temperatura (degC), Point: (27.483, 62.5)Temperatura (degC), Point: (28.742, 62.5)Temperatura (degC), Point: (29.497, 62.5)Temperatura (degC), Point: (29.99, 62.5)Temperatura (degC), Point: (0, 125)Temperatura (degC), Point: (15, 125)Temperatura (degC), Point: (27.483, 125)Temperatura (degC), Point: (28.742, 125)Temperatura (degC), Point: (29.497, 125)Temperatura (degC), Point: (29.99, 125)Temperatura (degC), Point: (0, 187.5)Temperatura (degC), Point: (15, 187.5)Temperatura (degC), Point: (27.483, 187.5)Temperatura (degC), Point: (28.742, 187.5)Temperatura (degC), Point: (29.497, 187.5)Temperatura (degC), Point: (29.99, 187.5)Temperatura (degC), Point: (0, 250)Temperatura (degC), Point: (15, 250)Temperatura (degC), Point: (27.483, 250)Temperatura (degC), Point: (28.742, 250)Temperatura (degC), Point: (29.497, 250)Temperatura (degC), Point: (29.99, 250)Temperatura (degC), Point: (0, 312.5)Temperatura (degC), Point: (15, 312.5)Temperatura (degC), Point: (27.483, 312.5)Temperatura (degC), Point: (28.742, 312.5)Temperatura (degC), Point: (29.497, 312.5)Temperatura (degC), Point: (29.99, 312.5)Temperatura (degC), Point: (0, 375)Temperatura (degC), Point: (15, 375)Temperatura (degC), Point: (27.483, 375)Temperatura (degC), Point: (28.742, 375)Temperatura (degC), Point: (29.497, 375)Temperatura (degC), Point: (29.99, 375)Temperatura (degC), Point: (0, 437.5)Temperatura (degC), Point: (15, 437.5)Temperatura (degC), Point: (27.483, 437.5)Temperatura (degC), Point: (28.742, 437.5)Temperatura (degC), Point: (29.497, 437.5)Temperatura (degC), Point: (29.99, 437.5)Temperatura (degC), Point: (0, 468.75)Temperatura (degC), Point: (15, 468.75)Temperatura (degC), Point: (27.483, 468.75)Temperatura (degC), Point: (28.742, 468.75)Temperatura (degC), Point: (29.497, 468.75)Temperatura (degC), Point: (29.99, 468.75)Temperatura (degC), Point: (0, 492.19)Temperatura (degC), Point: (15, 492.19)Temperatura (degC), Point: (27.483, 492.19)Temperatura (degC), Point: (28.742, 492.19)Temperatura (degC), Point: (29.497, 492.19)Temperatura (degC), Point: (29.99, 492.19)
16.000                   2.2500                   1.0000                   6000.0                   2500.0                   0.0000                   20.000                   20.000                   20.000                   20.000                   20.043                   20.273                   20.000                   20.000                   20.000                   20.000                   20.043                   20.274                   20.000                   20.000                   20.000                   20.000                   20.043                   20.275                   20.000                   20.000                   20.000                   20.000                   20.044                   20.276                   20.000                   20.000                   20.000                   20.000                   20.045                   20.278                   20.000                   20.000                   20.000                   20.000                   20.045                   20.280                   20.000                   20.000                   20.000                   20.000                   20.046                   20.283                   20.000                   20.000                   20.000                   20.000                   20.047                   20.285                   20.000                   20.000                   20.000                   20.000                   20.043                   20.274                   20.000                   20.000                   20.000                   20.000                   20.036                   20.259
16.000                   2.2500                   1.0000                   6000.0                   2500.0                   5.0000                   25.107                   42.381                   139.31                   157.63                   169.20                   173.65                   25.097                   42.366                   139.21                   157.15                   168.59                   173.02                   25.154                   42.622                   140.71                   158.81                   170.13                   174.58                   25.166                   42.700                   141.51                   159.73                   171.35                   175.86                   25.231                   43.009                   143.43                   162.02                   173.52                   178.34                   25.276                   43.201                   143.53                   162.48                   174.65                   179.39                   25.283                   43.301                   144.85                   163.93                   175.69                   180.22                   25.342                   43.609                   146.37                   165.29                   177.08                   181.59                   24.976                   41.853                   136.05                   153.65                   164.87                   169.22                   25.926                   43.293                   128.40                   143.50                   153.14                   156.97
16.000                   2.2500                   1.0000                   6000.0                   2500.0                   10.000                   54.579                   97.967                   238.34                   260.56                   274.32                   279.19                   54.472                   97.570                   236.15                   257.90                   271.38                   276.20                   54.906                   98.616                   239.64                   261.36                   274.80                   279.66                   54.900                   98.717                   241.96                   264.40                   277.65                   282.55                   55.325                   99.826                   245.86                   269.25                   283.69                   289.04                   55.465                   100.11                   246.44                   269.82                   284.20                   289.31                   55.447                   100.07                   245.21                   268.13                   281.95                   287.06                   55.451                   99.935                   243.31                   265.08                   278.22                   283.01                   53.278                   94.711                   227.75                   248.76                   261.75                   266.45                   54.875                   95.005                   212.65                   230.24                   241.14                   245.18
16.000                   2.2500                   1.0000                   6000.0                   2500.0                   15.000                   106.36                   165.83                   337.54                   364.32                   380.62                   385.95                   105.85                   164.47                   332.59                   358.82                   374.79                   380.03                   106.88                   166.21                   336.04                   362.79                   379.16                   384.59                   106.88                   166.52                   338.91                   366.08                   382.60                   388.05                   107.87                   168.41                   344.68                   372.95                   390.31                   395.53                   107.88                   168.21                   341.45                   367.86                   383.63                   388.88                   107.91                   168.38                   342.49                   369.62                   386.18                   391.69                   107.28                   167.11                   340.77                   368.07                   384.78                   390.32                   102.39                   158.22                   317.45                   342.42                   357.67                   362.80                   103.23                   155.51                   291.33                   311.36                   323.20                   327.27
16.000                   2.2500                   1.0000                   6000.0                   2500.0                   20.000                   170.95                   239.25                   437.49                   468.70                   486.98                   492.70                   169.87                   237.26                   434.65                   465.74                   484.11                   489.95                   171.44                   239.37                   439.00                   471.37                   490.74                   497.08                   171.65                   240.39                   446.50                   480.58                   501.26                   507.64                   173.14                   242.56                   450.33                   485.33                   504.92                   510.47                   172.68                   241.42                   444.25                   474.97                   493.49                   499.34                   172.93                   242.13                   445.40                   477.45                   497.42                   503.64                   171.34                   240.10                   446.47                   479.68                   500.18                   506.56                   163.31                   227.09                   413.03                   442.81                   460.74                   466.57                   163.44                   220.77                   366.32                   387.14                   399.37                   403.55
16.000                   2.2500                   1.0000                   6000.0                   2500.0                   25.000                   239.01                   313.42                   530.72                   566.00                   586.36                   592.29                   237.73                   311.88                   530.34                   565.96                   586.43                   592.39                   239.56                   314.24                   535.29                   571.31                   591.92                   597.85                   240.28                   316.15                   541.51                   577.88                   598.56                   604.56                   241.99                   318.19                   544.17                   580.59                   601.44                   607.47                   240.86                   316.11                   538.91                   575.34                   596.20                   602.26                   241.39                   317.17                   541.41                   577.98                   598.83                   604.89                   239.08                   314.85                   539.46                   575.83                   596.50                   602.49                   227.63                   297.26                   500.49                   533.02                   551.84                   557.42                   224.40                   284.01                   437.61                   460.55                   474.39                   478.84
16.000                   2.2500                   1.0000                   6000.0                   2500.0                   30.000                   305.85                   383.89                   602.28                   636.15                   656.31                   661.84                   304.91                   383.49                   605.53                   641.75                   662.43                   668.07                   306.60                   385.08                   601.30                   635.00                   654.79                   659.90                   308.01                   387.69                   598.54                   628.35                   645.64                   651.02                   309.62                   389.19                   603.06                   631.25                   649.38                   655.09                   307.76                   385.97                   591.82                   624.60                   643.68                   649.52                   308.45                   387.37                   600.91                   632.95                   650.40                   656.08                   305.58                   383.88                   587.80                   616.08                   631.35                   636.10                   290.65                   362.87                   561.64                   594.22                   612.20                   616.82                   277.82                   338.85                   495.09                   518.77                   533.31                   537.73
16.000                   2.2500                   1.0000                   6000.0                   2500.0                   35.000                   369.72                   450.28                   692.15                   736.33                   761.64                   768.38                   369.40                   450.62                   694.51                   738.91                   764.36                   771.12                   370.56                   450.79                   690.49                   734.47                   759.77                   766.53                   372.62                   453.84                   694.70                   739.21                   764.89                   771.69                   373.87                   454.67                   694.34                   738.96                   764.62                   771.42                   371.36                   450.80                   688.40                   732.63                   758.06                   764.82                   371.98                   452.16                   692.86                   737.60                   763.43                   770.26                   368.24                   446.85                   680.83                   724.48                   749.62                   756.35                   350.16                   423.56                   642.85                   682.12                   704.65                   710.85                   330.72                   394.51                   565.34                   592.00                   607.66                   612.30
16.000                   2.2500                   1.0000                   6000.0                   2500.0                   40.000                   427.28                   510.43                   770.04                   823.19                   851.47                   858.37                   427.30                   510.88                   772.02                   825.46                   853.83                   860.73                   427.94                   510.64                   769.35                   822.69                   851.16                   858.09                   430.30                   513.79                   775.22                   829.29                   857.94                   864.85                   431.18                   514.34                   775.77                   830.03                   858.80                   865.76                   428.43                   510.65                   769.74                   823.64                   852.22                   859.19                   428.83                   511.63                   773.89                   828.45                   857.35                   864.37                   424.13                   505.48                   761.34                   814.91                   843.49                   850.48                   404.15                   480.13                   710.34                   753.26                   777.95                   784.40                   383.78                   450.22                   630.34                   658.75                   675.19                   679.83
16.000                   2.2500                   1.0000                   6000.0                   2500.0                   45.000                   481.32                   566.26                   850.25                   906.97                   935.10                   941.39                   481.53                   566.73                   851.97                   908.90                   937.09                   943.36                   481.87                   566.42                   850.33                   907.31                   935.67                   941.99                   484.37                   569.52                   856.78                   914.20                   942.48                   948.72                   484.97                   569.95                   858.43                   916.10                   944.56                   950.83                   482.14                   566.55                   852.83                   910.53                   938.96                   945.29                   482.39                   567.30                   857.25                   915.54                   944.20                   950.54                   476.87                   560.70                   844.89                   903.21                   932.07                   938.52                   455.08                   533.08                   775.66                   823.81                   849.91                   856.29                   434.05                   502.11                   683.74                   712.33                   728.95                   733.50
16.000                   2.2500                   1.0000                   6000.0                   2500.0                   50.000                   533.13                   618.73                   922.90                   975.98                   1000.9                   1005.9                   533.47                   619.19                   924.06                   977.12                   1002.0                   1007.0                   533.61                   618.93                   923.02                   976.10                   1001.0                   1006.1                   536.17                   621.88                   927.95                   980.52                   1005.0                   1009.9                   536.57                   622.28                   929.91                   982.53                   1007.0                   1011.9                   533.76                   619.22                   926.13                   979.52                   1004.4                   1009.4                   533.88                   619.85                   929.81                   983.10                   1007.9                   1012.8                   527.68                   613.04                   919.72                   974.35                   999.92                   1005.1                   504.06                   583.24                   839.80                   890.89                   916.85                   922.73                   482.30                   551.08                   728.67                   756.88                   773.44                   777.79
16.000                   2.2500                   1.0000                   6000.0                   2500.0                   55.000                   580.91                   664.39                   958.95                   1001.0                   1020.1                   1023.5                   581.29                   664.80                   958.56                   1000.2                   1019.2                   1022.6                   581.38                   664.61                   957.34                   998.90                   1017.9                   1021.4                   583.85                   667.24                   956.88                   996.91                   1015.3                   1018.7                   584.15                   667.63                   955.27                   994.30                   1012.3                   1015.7                   581.52                   665.04                   952.17                   991.13                   1009.2                   1012.6                   581.64                   665.81                   951.53                   988.51                   1005.6                   1008.8                   575.10                   659.30                   947.34                   985.90                   1003.8                   1007.2                   549.89                   627.93                   894.05                   941.38                   964.58                   969.50                   527.12                   594.19                   763.47                   791.76                   808.01                   812.08
16.000                   2.2500                   1.0000                   6000.0                   2500.0                   60.000                   623.03                   702.23                   985.54                   1021.4                   1036.4                   1038.6                   623.41                   702.48                   983.15                   1018.5                   1033.5                   1035.8                   623.50                   702.39                   981.02                   1015.9                   1030.9                   1033.2                   625.80                   704.48                   975.25                   1008.0                   1022.6                   1025.0                   626.08                   704.88                   970.83                   1002.1                   1016.3                   1018.7                   623.80                   702.93                   967.03                   997.50                   1011.5                   1014.0                   624.06                   704.09                   968.01                   996.52                   1009.5                   1011.7                   617.68                   698.69                   968.78                   998.28                   1011.5                   1013.7                   591.56                   667.22                   937.83                   980.16                   1000.5                   1004.5                   567.90                   631.46                   796.72                   825.25                   840.96                   844.73
16.000                   2.2500                   1.0000                   6000.0                   2500.0                   65.000                   657.71                   732.60                   1005.6                   1036.3                   1047.8                   1049.0                   658.06                   732.55                   1000.7                   1030.7                   1042.5                   1043.8                   658.19                   732.59                   998.00                   1027.2                   1038.9                   1040.2                   660.28                   734.36                   988.61                   1015.6                   1027.1                   1028.7                   660.63                   734.90                   984.00                   1009.6                   1020.8                   1022.4                   658.79                   733.52                   980.42                   1005.0                   1015.9                   1017.6                   659.26                   735.49                   987.60                   1011.2                   1021.2                   1022.4                   653.48                   730.90                   985.71                   1009.2                   1019.0                   1020.3                   627.39                   700.07                   962.35                   996.65                   1012.6                   1015.4                   603.07                   662.74                   826.23                   853.28                   867.90                   871.28
16.000                   2.2500                   1.0000                   6000.0                   2500.0                   70.000                   686.93                   760.57                   1020.1                   1045.8                   1054.6                   1055.0                   687.20                   760.31                   1012.8                   1037.9                   1047.0                   1047.7                   687.38                   760.61                   1011.1                   1035.4                   1044.3                   1044.9                   689.22                   762.33                   1000.2                   1022.4                   1031.3                   1032.2                   689.64                   763.22                   997.27                   1018.3                   1027.0                   1027.8                   688.27                   762.38                   994.27                   1014.3                   1022.6                   1023.5                   688.95                   765.55                   1008.8                   1028.9                   1036.3                   1036.7                   684.06                   760.96                   1000.0                   1019.1                   1026.4                   1026.9                   658.98                   729.11                   982.47                   1010.0                   1021.9                   1023.6                   634.25                   689.92                   852.54                   877.74                   891.21                   894.18
16.000                   2.2500                   1.0000                   6000.0                   2500.0                   75.000                   710.72                   787.89                   1029.0                   1050.2                   1056.9                   1056.8                   710.89                   787.50                   1020.1                   1040.8                   1047.9                   1048.1                   711.12                   788.27                   1021.2                   1041.2                   1048.0                   1048.0                   712.69                   790.17                   1011.3                   1029.6                   1036.4                   1036.6                   713.20                   791.65                   1011.6                   1029.2                   1035.7                   1035.9                   712.26                   791.37                   1009.4                   1026.1                   1032.3                   1032.4                   713.12                   795.94                   1029.9                   1047.3                   1052.6                   1052.2                   709.20                   790.71                   1013.6                   1029.6                   1035.2                   1035.1                   686.30                   756.08                   1003.3                   1026.5                   1035.3                   1036.1                   661.67                   713.37                   876.05                   899.38                   911.73                   914.33