% Model:              batchmodel_COIL_N_16_COIL_kr_1.5_COIL_kh_1.5_FUNZ_freq_10000_FUNZ_I_eff_1000.mph
% Version:            COMSOL 6.0.0.318
% Date:               Feb 8 2022, 21:18
% Table:              Tabella 1 - GRIGLIA_T
% COIL_N                 COIL_kr                  COIL_kh                  FUNZ_freq                FUNZ_I_eff               Time (s)                 Temperatura (degC), Point: (0, 0)Temperatura (degC), Point: (15, 0)Temperatura (degC), Point: (28.051, 0)Temperatura (degC), Point: (29.025, 0)Temperatura (degC), Point: (29.61, 0)Temperatura (degC), Point: (29.99, 0)Temperatura (degC), Point: (0, 62.5)Temperatura (degC), Point: (15, 62.5)Temperatura (degC), Point: (28.051, 62.5)Temperatura (degC), Point: (29.025, 62.5)Temperatura (degC), Point: (29.61, 62.5)Temperatura (degC), Point: (29.99, 62.5)Temperatura (degC), Point: (0, 125)Temperatura (degC), Point: (15, 125)Temperatura (degC), Point: (28.051, 125)Temperatura (degC), Point: (29.025, 125)Temperatura (degC), Point: (29.61, 125)Temperatura (degC), Point: (29.99, 125)Temperatura (degC), Point: (0, 187.5)Temperatura (degC), Point: (15, 187.5)Temperatura (degC), Point: (28.051, 187.5)Temperatura (degC), Point: (29.025, 187.5)Temperatura (degC), Point: (29.61, 187.5)Temperatura (degC), Point: (29.99, 187.5)Temperatura (degC), Point: (0, 250)Temperatura (degC), Point: (15, 250)Temperatura (degC), Point: (28.051, 250)Temperatura (degC), Point: (29.025, 250)Temperatura (degC), Point: (29.61, 250)Temperatura (degC), Point: (29.99, 250)Temperatura (degC), Point: (0, 312.5)Temperatura (degC), Point: (15, 312.5)Temperatura (degC), Point: (28.051, 312.5)Temperatura (degC), Point: (29.025, 312.5)Temperatura (degC), Point: (29.61, 312.5)Temperatura (degC), Point: (29.99, 312.5)Temperatura (degC), Point: (0, 375)Temperatura (degC), Point: (15, 375)Temperatura (degC), Point: (28.051, 375)Temperatura (degC), Point: (29.025, 375)Temperatura (degC), Point: (29.61, 375)Temperatura (degC), Point: (29.99, 375)Temperatura (degC), Point: (0, 437.5)Temperatura (degC), Point: (15, 437.5)Temperatura (degC), Point: (28.051, 437.5)Temperatura (degC), Point: (29.025, 437.5)Temperatura (degC), Point: (29.61, 437.5)Temperatura (degC), Point: (29.99, 437.5)Temperatura (degC), Point: (0, 468.75)Temperatura (degC), Point: (15, 468.75)Temperatura (degC), Point: (28.051, 468.75)Temperatura (degC), Point: (29.025, 468.75)Temperatura (degC), Point: (29.61, 468.75)Temperatura (degC), Point: (29.99, 468.75)Temperatura (degC), Point: (0, 492.19)Temperatura (degC), Point: (15, 492.19)Temperatura (degC), Point: (28.051, 492.19)Temperatura (degC), Point: (29.025, 492.19)Temperatura (degC), Point: (29.61, 492.19)Temperatura (degC), Point: (29.99, 492.19)
16.000                   1.5000                   1.5000                   10000                    1000.0                   0.0000                   20.000                   20.000                   20.000                   20.000                   20.005                   20.124                   20.000                   20.000                   20.000                   20.000                   20.005                   20.124                   20.000                   20.000                   20.000                   20.000                   20.005                   20.126                   20.000                   20.000                   20.000                   20.000                   20.006                   20.128                   20.000                   20.000                   20.000                   20.000                   20.006                   20.132                   20.000                   20.000                   20.000                   20.000                   20.007                   20.136                   20.000                   20.000                   20.000                   20.000                   20.007                   20.141                   20.000                   20.000                   20.000                   20.000                   20.008                   20.146                   20.000                   20.000                   20.000                   20.000                   20.008                   20.149                   20.000                   20.000                   20.000                   20.000                   20.009                   20.155
16.000                   1.5000                   1.5000                   10000                    1000.0                   5.0000                   21.527                   26.511                   53.497                   56.936                   59.096                   60.175                   21.480                   26.357                   53.107                   56.537                   58.688                   59.763                   21.495                   26.445                   53.803                   57.303                   59.488                   60.576                   21.529                   26.597                   54.250                   57.816                   60.054                   61.166                   21.533                   26.660                   55.073                   58.711                   60.999                   62.148                   21.540                   26.732                   55.855                   59.618                   61.986                   63.171                   21.572                   26.949                   57.504                   61.532                   64.024                   65.255                   21.572                   26.995                   58.449                   62.543                   65.225                   66.528                   21.601                   27.144                   58.764                   62.875                   65.515                   66.820                   21.908                   27.803                   58.827                   62.917                   65.684                   67.031
16.000                   1.5000                   1.5000                   10000                    1000.0                   10.000                   31.177                   42.710                   78.065                   81.730                   83.987                   85.097                   30.833                   42.020                   76.716                   80.370                   82.628                   83.735                   31.052                   42.549                   78.318                   82.051                   84.334                   85.455                   31.180                   42.881                   79.824                   83.795                   86.157                   87.319                   31.260                   43.078                   80.194                   84.175                   86.507                   87.648                   31.241                   43.252                   82.706                   87.152                   89.748                   91.001                   31.479                   43.903                   84.676                   89.150                   91.727                   92.989                   31.569                   44.307                   87.084                   91.927                   94.821                   96.156                   31.517                   44.086                   85.464                   90.076                   92.773                   94.092                   32.633                   46.095                   89.513                   94.254                   97.108                   98.474
16.000                   1.5000                   1.5000                   10000                    1000.0                   15.000                   46.533                   62.229                   102.45                   106.27                   108.61                   109.74                   45.571                   60.592                   99.779                   103.63                   106.00                   107.15                   46.268                   61.880                   102.45                   106.38                   108.79                   109.95                   46.489                   62.452                   105.35                   109.69                   112.22                   113.44                   46.641                   62.616                   104.82                   109.03                   111.49                   112.71                   46.490                   62.741                   107.64                   112.35                   115.12                   116.43                   47.006                   63.783                   110.07                   114.71                   117.45                   118.76                   47.213                   64.415                   112.46                   117.50                   120.50                   121.87                   46.962                   63.791                   110.39                   115.29                   118.30                   119.75                   49.161                   67.345                   116.98                   121.99                   124.95                   126.34
16.000                   1.5000                   1.5000                   10000                    1000.0                   20.000                   67.659                   85.184                   128.36                   132.39                   134.86                   136.03                   65.633                   82.156                   123.75                   127.81                   130.31                   131.50                   67.135                   84.467                   127.81                   131.97                   134.51                   135.72                   67.494                   85.369                   131.98                   136.68                   139.47                   140.80                   67.417                   84.988                   129.93                   134.44                   137.14                   138.43                   67.100                   85.082                   132.87                   137.76                   140.65                   142.00                   67.828                   86.291                   135.39                   140.19                   143.02                   144.36                   68.080                   86.940                   137.51                   142.72                   145.85                   147.25                   67.680                   86.196                   136.06                   141.28                   144.49                   145.99                   71.041                   91.134                   143.72                   148.94                   152.01                   153.42
16.000                   1.5000                   1.5000                   10000                    1000.0                   25.000                   89.695                   108.68                   154.61                   158.87                   161.47                   162.69                   86.599                   104.31                   148.13                   152.39                   155.01                   156.24                   88.955                   107.67                   153.54                   157.91                   160.59                   161.84                   89.375                   108.73                   158.34                   163.33                   166.32                   167.74                   89.099                   107.96                   155.52                   160.33                   163.23                   164.59                   88.530                   107.84                   157.97                   163.02                   166.01                   167.40                   89.467                   109.26                   160.79                   165.76                   168.68                   170.05                   89.691                   109.81                   162.59                   167.96                   171.19                   172.63                   89.158                   108.96                   161.53                   167.01                   170.35                   171.88                   93.521                   115.03                   170.01                   175.42                   178.60                   180.02
16.000                   1.5000                   1.5000                   10000                    1000.0                   30.000                   112.62                   132.72                   181.20                   185.70                   188.46                   189.72                   108.45                   127.05                   172.90                   177.37                   180.11                   181.37                   111.71                   131.48                   179.63                   184.21                   187.02                   188.30                   112.12                   132.54                   184.43                   189.63                   192.80                   194.27                   111.67                   131.53                   181.58                   186.70                   189.78                   191.17                   110.77                   131.01                   182.97                   188.13                   191.21                   192.61                   111.91                   132.69                   186.27                   191.42                   194.44                   195.84                   112.03                   133.03                   187.68                   193.21                   196.53                   198.01                   111.38                   132.09                   186.80                   192.48                   195.90                   197.42                   116.59                   139.03                   195.85                   201.45                   204.71                   206.15
16.000                   1.5000                   1.5000                   10000                    1000.0                   35.000                   135.72                   156.27                   206.04                   210.69                   213.55                   214.85                   131.51                   150.80                   198.65                   203.34                   206.21                   207.52                   135.59                   156.09                   206.27                   211.08                   214.00                   215.32                   135.62                   156.62                   209.88                   215.22                   218.48                   219.96                   135.52                   156.15                   208.29                   213.59                   216.73                   218.14                   134.21                   155.19                   209.15                   214.52                   217.74                   219.17                   135.67                   157.31                   213.41                   218.83                   222.01                   223.46                   135.32                   156.98                   213.57                   219.27                   222.68                   224.19                   134.63                   156.06                   213.07                   219.03                   222.60                   224.15                   140.05                   163.02                   221.17                   226.87                   230.20                   231.64
16.000                   1.5000                   1.5000                   10000                    1000.0                   40.000                   158.82                   179.81                   230.80                   235.61                   238.57                   239.90                   154.63                   174.59                   224.44                   229.35                   232.37                   233.72                   159.52                   180.73                   232.94                   237.97                   241.01                   242.37                   159.15                   180.71                   235.29                   240.78                   244.13                   245.61                   159.42                   180.82                   235.03                   240.50                   243.71                   245.14                   157.71                   179.41                   235.39                   240.97                   244.32                   245.78                   159.48                   181.99                   240.61                   246.32                   249.67                   251.17                   158.65                   180.96                   239.49                   245.37                   248.87                   250.40                   157.92                   180.07                   239.39                   245.63                   249.35                   250.93                   163.53                   187.01                   246.46                   252.26                   255.65                   257.11
16.000                   1.5000                   1.5000                   10000                    1000.0                   45.000                   181.92                   203.34                   255.56                   260.52                   263.58                   264.94                   177.74                   198.39                   250.24                   255.37                   258.52                   259.91                   183.44                   205.38                   259.62                   264.86                   268.02                   269.41                   182.69                   204.80                   260.70                   266.33                   269.78                   271.27                   183.32                   205.48                   261.77                   267.41                   270.68                   272.13                   181.21                   203.63                   261.63                   267.42                   270.90                   272.40                   183.30                   206.66                   267.81                   273.80                   277.33                   278.87                   181.97                   204.93                   265.42                   271.48                   275.06                   276.61                   181.21                   204.08                   265.71                   272.22                   276.10                   277.71                   187.00                   211.00                   271.75                   277.66                   281.11                   282.58
16.000                   1.5000                   1.5000                   10000                    1000.0                   50.000                   204.61                   226.52                   280.62                   285.86                   289.08                   290.48                   200.89                   222.21                   276.10                   281.47                   284.77                   286.20                   206.73                   229.17                   285.13                   290.61                   293.93                   295.36                   205.78                   228.35                   285.63                   291.41                   294.95                   296.45                   206.69                   229.40                   287.35                   293.18                   296.61                   298.10                   204.42                   227.36                   286.86                   292.84                   296.46                   297.99                   206.50                   230.32                   292.66                   298.85                   302.55                   304.13                   205.00                   228.51                   290.57                   296.86                   300.63                   302.22                   204.02                   227.39                   290.28                   296.93                   300.92                   302.56                   209.48                   233.66                   294.78                   300.79                   304.36                   305.86
16.000                   1.5000                   1.5000                   10000                    1000.0                   55.000                   227.23                   249.65                   305.73                   311.25                   314.65                   316.10                   224.05                   246.03                   301.97                   307.58                   311.03                   312.49                   229.91                   252.82                   310.47                   316.18                   319.66                   321.13                   228.80                   251.81                   310.49                   316.41                   320.04                   321.57                   229.97                   253.20                   312.75                   318.76                   322.38                   323.91                   227.58                   251.02                   311.92                   318.09                   321.86                   323.43                   229.61                   253.83                   317.13                   323.52                   327.39                   329.01                   227.99                   252.02                   315.60                   322.12                   326.09                   327.74                   226.76                   250.59                   314.59                   321.33                   325.43                   327.11                   231.81                   256.11                   317.45                   323.56                   327.26                   328.80
16.000                   1.5000                   1.5000                   10000                    1000.0                   60.000                   249.86                   272.77                   330.84                   336.65                   340.22                   341.71                   247.21                   269.86                   327.85                   333.70                   337.29                   338.79                   253.10                   276.47                   335.80                   341.75                   345.40                   346.91                   251.82                   275.28                   335.35                   341.41                   345.14                   346.68                   253.25                   277.00                   338.15                   344.35                   348.14                   349.71                   250.74                   274.68                   336.98                   343.35                   347.26                   348.86                   252.72                   277.33                   341.60                   348.18                   352.23                   353.88                   250.97                   275.52                   340.62                   347.39                   351.56                   353.25                   249.51                   273.79                   338.89                   345.73                   349.94                   351.65                   254.13                   278.56                   340.13                   346.34                   350.16                   351.74
16.000                   1.5000                   1.5000                   10000                    1000.0                   65.000                   272.85                   296.62                   357.51                   363.64                   367.40                   368.94                   270.41                   293.83                   354.20                   360.32                   364.07                   365.61                   276.29                   300.39                   362.04                   368.26                   372.08                   373.63                   274.82                   298.97                   361.20                   367.49                   371.34                   372.90                   276.46                   300.94                   364.49                   371.00                   374.98                   376.58                   273.79                   298.39                   362.82                   369.45                   373.52                   375.16                   275.72                   300.99                   367.50                   374.37                   378.60                   380.29                   273.89                   299.18                   366.75                   373.84                   378.20                   379.94                   272.15                   297.10                   364.37                   371.48                   375.85                   377.59                   276.36                   301.28                   364.38                   370.77                   374.70                   376.31
16.000                   1.5000                   1.5000                   10000                    1000.0                   70.000                   295.94                   320.67                   384.65                   391.11                   395.06                   396.64                   293.61                   317.85                   380.69                   387.08                   391.01                   392.59                   299.48                   324.39                   388.55                   395.05                   399.04                   400.63                   297.82                   322.73                   387.36                   393.90                   397.87                   399.45                   299.65                   324.92                   391.12                   397.97                   402.14                   403.77                   296.81                   322.11                   388.89                   395.82                   400.05                   401.72                   298.69                   324.71                   393.84                   401.02                   405.43                   407.15                   296.80                   322.87                   393.21                   400.65                   405.20                   406.97                   294.76                   320.45                   390.21                   397.62                   402.16                   403.94                   298.57                   324.07                   389.09                   395.70                   399.74                   401.36
16.000                   1.5000                   1.5000                   10000                    1000.0                   75.000                   319.03                   344.73                   411.78                   418.57                   422.73                   424.35                   316.82                   341.87                   407.18                   413.85                   417.95                   419.56                   322.67                   348.39                   415.06                   421.85                   426.00                   427.63                   320.83                   346.49                   413.51                   420.30                   424.41                   425.99                   322.83                   348.90                   417.74                   424.94                   429.30                   430.95                   319.82                   345.84                   414.96                   422.18                   426.58                   428.27                   321.66                   348.43                   420.18                   427.66                   432.25                   434.02                   319.70                   346.57                   419.67                   427.46                   432.20                   434.00                   317.38                   343.80                   416.04                   423.77                   428.48                   430.30                   320.77                   346.86                   413.81                   420.62                   424.77                   426.42