% Model:              batchmodel_COIL_N_16_COIL_kr_3_COIL_kh_1_FUNZ_freq_2000_FUNZ_I_eff_2500.mph
% Version:            COMSOL 6.0.0.318
% Date:               Feb 8 2022, 23:04
% Table:              Tabella 1 - GRIGLIA_T
% COIL_N                 COIL_kr                  COIL_kh                  FUNZ_freq                FUNZ_I_eff               Time (s)                 Temperatura (degC), Point: (0, 0)Temperatura (degC), Point: (15, 0)Temperatura (degC), Point: (25.641, 0)Temperatura (degC), Point: (27.821, 0)Temperatura (degC), Point: (29.128, 0)Temperatura (degC), Point: (29.99, 0)Temperatura (degC), Point: (0, 62.5)Temperatura (degC), Point: (15, 62.5)Temperatura (degC), Point: (25.641, 62.5)Temperatura (degC), Point: (27.821, 62.5)Temperatura (degC), Point: (29.128, 62.5)Temperatura (degC), Point: (29.99, 62.5)Temperatura (degC), Point: (0, 125)Temperatura (degC), Point: (15, 125)Temperatura (degC), Point: (25.641, 125)Temperatura (degC), Point: (27.821, 125)Temperatura (degC), Point: (29.128, 125)Temperatura (degC), Point: (29.99, 125)Temperatura (degC), Point: (0, 187.5)Temperatura (degC), Point: (15, 187.5)Temperatura (degC), Point: (25.641, 187.5)Temperatura (degC), Point: (27.821, 187.5)Temperatura (degC), Point: (29.128, 187.5)Temperatura (degC), Point: (29.99, 187.5)Temperatura (degC), Point: (0, 250)Temperatura (degC), Point: (15, 250)Temperatura (degC), Point: (25.641, 250)Temperatura (degC), Point: (27.821, 250)Temperatura (degC), Point: (29.128, 250)Temperatura (degC), Point: (29.99, 250)Temperatura (degC), Point: (0, 312.5)Temperatura (degC), Point: (15, 312.5)Temperatura (degC), Point: (25.641, 312.5)Temperatura (degC), Point: (27.821, 312.5)Temperatura (degC), Point: (29.128, 312.5)Temperatura (degC), Point: (29.99, 312.5)Temperatura (degC), Point: (0, 375)Temperatura (degC), Point: (15, 375)Temperatura (degC), Point: (25.641, 375)Temperatura (degC), Point: (27.821, 375)Temperatura (degC), Point: (29.128, 375)Temperatura (degC), Point: (29.99, 375)Temperatura (degC), Point: (0, 437.5)Temperatura (degC), Point: (15, 437.5)Temperatura (degC), Point: (25.641, 437.5)Temperatura (degC), Point: (27.821, 437.5)Temperatura (degC), Point: (29.128, 437.5)Temperatura (degC), Point: (29.99, 437.5)Temperatura (degC), Point: (0, 468.75)Temperatura (degC), Point: (15, 468.75)Temperatura (degC), Point: (25.641, 468.75)Temperatura (degC), Point: (27.821, 468.75)Temperatura (degC), Point: (29.128, 468.75)Temperatura (degC), Point: (29.99, 468.75)Temperatura (degC), Point: (0, 492.19)Temperatura (degC), Point: (15, 492.19)Temperatura (degC), Point: (25.641, 492.19)Temperatura (degC), Point: (27.821, 492.19)Temperatura (degC), Point: (29.128, 492.19)Temperatura (degC), Point: (29.99, 492.19)
16.000                   3.0000                   1.0000                   2000.0                   2500.0                   0.0000                   20.000                   20.000                   20.000                   20.000                   20.013                   20.100                   20.000                   20.000                   20.000                   20.000                   20.013                   20.100                   20.000                   20.000                   20.000                   20.000                   20.013                   20.100                   20.000                   20.000                   20.000                   20.000                   20.013                   20.100                   20.000                   20.000                   20.000                   20.000                   20.013                   20.100                   20.000                   20.000                   20.000                   20.000                   20.013                   20.100                   20.000                   20.000                   20.000                   20.000                   20.013                   20.100                   20.000                   20.000                   20.000                   20.000                   20.013                   20.099                   20.000                   20.000                   20.000                   20.000                   20.010                   20.092                   20.000                   20.000                   20.000                   20.000                   20.005                   20.069
16.000                   3.0000                   1.0000                   2000.0                   2500.0                   5.0000                   22.743                   31.973                   69.846                   83.827                   93.096                   96.987                   22.738                   31.962                   69.931                   83.989                   93.252                   97.136                   22.741                   31.984                   70.107                   84.199                   93.436                   97.321                   22.744                   31.999                   70.123                   84.204                   93.425                   97.303                   22.742                   32.012                   70.514                   84.659                   93.789                   97.654                   22.757                   32.110                   71.309                   85.547                   94.269                   97.999                   22.753                   32.087                   71.144                   85.269                   94.641                   98.568                   22.766                   32.088                   70.241                   84.308                   93.599                   97.496                   22.427                   30.612                   64.103                   76.508                   84.861                   88.431                   22.321                   28.825                   52.060                   60.307                   65.798                   68.342
16.000                   3.0000                   1.0000                   2000.0                   2500.0                   10.000                   40.248                   61.815                   115.47                   131.83                   142.37                   146.51                   40.455                   62.419                   117.61                   134.48                   145.27                   149.51                   40.372                   62.220                   117.11                   133.91                   144.75                   149.02                   40.401                   62.272                   117.26                   134.11                   144.74                   148.98                   40.377                   62.332                   118.11                   134.95                   145.62                   149.85                   40.586                   62.931                   120.40                   138.05                   148.85                   153.34                   40.609                   62.834                   118.96                   135.61                   146.07                   150.25                   40.280                   61.955                   115.36                   131.33                   141.60                   145.68                   37.557                   56.306                   102.96                   117.05                   126.08                   129.76                   35.760                   50.531                   82.398                   91.373                   97.110                   99.665
16.000                   3.0000                   1.0000                   2000.0                   2500.0                   15.000                   68.187                   96.521                   157.52                   175.23                   186.55                   190.87                   68.841                   97.707                   159.59                   177.40                   188.71                   193.00                   68.567                   97.237                   158.88                   176.69                   187.99                   192.28                   68.657                   97.382                   159.19                   177.06                   188.40                   192.69                   68.550                   97.305                   159.28                   177.13                   188.45                   192.75                   69.059                   98.206                   160.66                   178.44                   189.61                   193.79                   69.085                   98.089                   160.29                   178.18                   189.55                   193.86                   67.815                   95.865                   155.55                   172.71                   183.67                   187.87                   61.247                   85.357                   136.84                   151.67                   161.19                   164.95                   55.758                   74.213                   109.66                   119.14                   125.17                   127.78
16.000                   3.0000                   1.0000                   2000.0                   2500.0                   20.000                   101.81                   133.61                   200.25                   219.37                   231.39                   235.91                   102.71                   134.83                   201.58                   220.52                   232.35                   236.69                   102.24                   134.10                   200.51                   219.40                   231.11                   235.43                   102.48                   134.54                   201.57                   220.70                   232.50                   236.80                   102.29                   134.36                   201.57                   220.66                   232.50                   236.86                   102.74                   134.82                   201.12                   219.49                   230.59                   234.68                   103.21                   135.67                   203.62                   222.80                   234.76                   239.16                   100.42                   131.72                   197.04                   215.56                   227.31                   231.67                   89.344                   115.95                   171.56                   187.56                   197.76                   201.63                   80.450                   101.05                   138.85                   148.76                   154.99                   157.63
16.000                   3.0000                   1.0000                   2000.0                   2500.0                   25.000                   137.37                   171.49                   242.55                   263.01                   275.85                   280.48                   138.31                   172.56                   243.46                   263.76                   276.44                   280.95                   137.70                   171.70                   242.22                   262.45                   275.04                   279.54                   138.11                   172.35                   243.49                   263.90                   276.54                   281.02                   137.85                   172.11                   243.38                   263.78                   276.47                   280.99                   138.06                   172.10                   242.34                   262.19                   274.37                   278.75                   139.12                   173.79                   245.83                   266.31                   279.08                   283.63                   134.43                   167.75                   236.76                   256.39                   268.78                   273.24                   118.77                   146.85                   205.03                   221.72                   232.34                   236.28                   106.44                   127.98                   167.25                   177.51                   183.95                   186.61
16.000                   3.0000                   1.0000                   2000.0                   2500.0                   30.000                   173.84                   209.93                   285.22                   307.12                   320.85                   325.57                   174.74                   210.86                   286.07                   307.94                   321.65                   326.36                   174.08                   210.02                   284.99                   306.85                   320.56                   325.27                   174.58                   210.71                   286.01                   307.90                   321.62                   326.34                   174.28                   210.42                   285.76                   307.66                   321.38                   326.10                   174.28                   210.20                   284.98                   306.76                   320.44                   325.15                   175.67                   212.10                   287.81                   309.75                   323.47                   328.18                   168.69                   203.45                   275.25                   295.93                   308.90                   313.43                   148.63                   177.77                   237.81                   255.01                   265.94                   269.94                   132.83                   154.70                   195.02                   205.60                   212.24                   214.93
16.000                   3.0000                   1.0000                   2000.0                   2500.0                   35.000                   210.80                   248.88                   329.16                   352.76                   367.42                   372.28                   211.59                   249.70                   329.94                   353.53                   368.19                   373.04                   210.98                   248.96                   329.05                   352.62                   367.28                   372.14                   211.48                   249.60                   329.90                   353.50                   368.16                   373.02                   211.16                   249.28                   329.59                   353.20                   367.86                   372.72                   211.04                   248.99                   328.96                   352.50                   367.15                   372.00                   212.43                   250.70                   331.12                   354.70                   369.33                   374.18                   202.87                   239.08                   314.59                   336.56                   350.28                   354.91                   178.65                   208.81                   271.37                   289.43                   300.86                   304.94                   159.64                   181.98                   223.46                   234.41                   241.28                   243.99
16.000                   3.0000                   1.0000                   2000.0                   2500.0                   40.000                   247.73                   287.82                   373.09                   398.37                   413.95                   418.93                   248.44                   288.54                   373.81                   399.10                   414.68                   419.66                   247.87                   287.89                   373.09                   398.37                   413.95                   418.94                   248.37                   288.49                   373.78                   399.08                   414.66                   419.65                   248.04                   288.14                   373.43                   398.72                   414.31                   419.30                   247.80                   287.79                   372.92                   398.20                   413.79                   418.78                   249.16                   289.29                   374.43                   399.64                   415.17                   420.14                   236.99                   274.67                   353.96                   377.24                   391.68                   396.41                   208.66                   239.87                   305.02                   323.95                   335.89                   340.05                   186.50                   209.33                   252.00                   263.32                   270.41                   273.15
16.000                   3.0000                   1.0000                   2000.0                   2500.0                   45.000                   284.58                   326.73                   416.97                   443.86                   460.22                   465.27                   285.22                   327.38                   417.63                   444.53                   460.89                   465.94                   284.71                   326.82                   417.03                   443.93                   460.30                   465.36                   285.18                   327.36                   417.66                   444.59                   460.97                   466.03                   284.83                   327.00                   417.27                   444.18                   460.55                   465.61                   284.56                   326.64                   416.80                   443.70                   460.07                   465.13                   285.67                   327.77                   417.76                   444.56                   460.86                   465.90                   270.78                   310.12                   393.56                   418.18                   433.29                   438.08                   238.58                   271.00                   339.14                   359.06                   371.54                   375.77                   213.64                   237.10                   281.11                   292.82                   300.14                   302.90
16.000                   3.0000                   1.0000                   2000.0                   2500.0                   50.000                   321.43                   365.64                   460.84                   489.34                   506.49                   511.60                   322.00                   366.22                   461.45                   489.96                   507.11                   512.23                   321.55                   365.74                   460.97                   489.49                   506.65                   511.77                   322.00                   366.23                   461.54                   490.09                   507.27                   512.40                   321.63                   365.85                   461.11                   489.64                   506.80                   511.93                   321.32                   365.49                   460.68                   489.19                   506.35                   511.48                   322.17                   366.25                   461.09                   489.47                   506.55                   511.65                   304.57                   345.57                   433.15                   459.11                   474.89                   479.74                   268.49                   302.13                   373.27                   394.18                   407.20                   411.48                   240.77                   264.87                   310.22                   322.31                   329.86                   332.65
16.000                   3.0000                   1.0000                   2000.0                   2500.0                   55.000                   356.14                   402.32                   502.39                   532.73                   550.72                   555.88                   356.66                   402.84                   502.94                   533.28                   551.27                   556.43                   356.24                   402.40                   502.48                   532.83                   550.84                   555.99                   356.66                   402.87                   503.05                   533.45                   551.48                   556.65                   356.31                   402.49                   502.63                   533.01                   551.04                   556.20                   355.98                   402.11                   502.16                   532.52                   550.52                   555.68                   356.52                   402.53                   502.15                   532.33                   550.25                   555.39                   336.66                   379.36                   471.09                   498.49                   514.97                   519.85                   297.44                   332.27                   406.33                   428.20                   441.70                   446.01                   267.41                   292.10                   338.65                   351.07                   358.80                   361.58
16.000                   3.0000                   1.0000                   2000.0                   2500.0                   60.000                   390.53                   438.66                   543.58                   575.80                   594.66                   599.84                   391.00                   439.13                   544.07                   576.29                   595.13                   600.32                   390.61                   438.72                   543.63                   575.85                   594.70                   599.89                   391.01                   439.17                   544.20                   576.47                   595.38                   600.58                   390.66                   438.81                   543.80                   576.06                   594.97                   600.16                   390.31                   438.40                   543.29                   575.51                   594.38                   599.57                   390.54                   438.47                   542.86                   574.88                   593.66                   598.83                   368.50                   412.89                   508.78                   537.63                   554.83                   559.74                   326.25                   362.26                   439.24                   462.05                   476.03                   480.36                   293.97                   319.26                   366.97                   379.72                   387.62                   390.39
16.000                   3.0000                   1.0000                   2000.0                   2500.0                   65.000                   424.91                   475.00                   584.78                   618.87                   638.59                   643.81                   425.34                   475.42                   585.20                   619.29                   638.99                   644.21                   424.98                   475.04                   584.77                   618.86                   638.57                   643.78                   425.36                   475.47                   585.34                   619.50                   639.28                   644.51                   425.02                   475.12                   584.97                   619.12                   638.90                   644.12                   424.65                   474.69                   584.41                   618.51                   638.23                   643.45                   424.57                   474.41                   583.57                   617.43                   637.07                   642.26                   400.34                   446.42                   546.48                   576.78                   594.68                   599.62                   355.05                   392.25                   472.14                   495.91                   510.35                   514.70                   320.53                   346.41                   395.29                   408.36                   416.44                   419.21
16.000                   3.0000                   1.0000                   2000.0                   2500.0                   70.000                   459.30                   511.34                   625.97                   661.94                   682.52                   687.77                   459.67                   511.71                   626.33                   662.29                   682.85                   688.10                   459.35                   511.36                   625.92                   661.87                   682.43                   687.68                   459.71                   511.77                   626.49                   662.53                   683.18                   688.44                   459.37                   511.43                   626.14                   662.17                   682.83                   688.08                   458.99                   510.98                   625.54                   661.51                   682.08                   687.33                   458.59                   510.35                   624.28                   659.98                   680.47                   685.70                   432.18                   479.96                   584.17                   615.93                   634.54                   639.50                   383.85                   422.24                   505.05                   529.77                   544.68                   549.05                   347.09                   373.57                   423.61                   437.01                   445.26                   448.02
16.000                   3.0000                   1.0000                   2000.0                   2500.0                   75.000                   491.84                   545.15                   663.53                   701.57                   723.05                   728.32                   492.17                   545.48                   663.83                   701.86                   723.31                   728.58                   491.87                   545.15                   663.43                   701.44                   722.89                   728.15                   492.21                   545.55                   664.02                   702.13                   723.69                   728.97                   491.90                   545.22                   663.69                   701.79                   723.36                   728.63                   491.50                   544.76                   663.04                   701.07                   722.55                   727.81                   490.81                   543.82                   661.39                   699.09                   720.48                   725.72                   462.58                   511.55                   618.67                   651.63                   670.86                   675.83                   411.75                   451.21                   536.61                   562.21                   577.55                   581.92                   373.00                   400.03                   451.17                   464.87                   473.26                   476.01