% Model:              batchmodel_COIL_N_16_COIL_kr_2.25_COIL_kh_1_FUNZ_freq_2000_FUNZ_I_eff_1000.mph
% Version:            COMSOL 6.0.0.318
% Date:               Feb 8 2022, 21:41
% Table:              Tabella 1 - GRIGLIA_T
% COIL_N                 COIL_kr                  COIL_kh                  FUNZ_freq                FUNZ_I_eff               Time (s)                 Temperatura (degC), Point: (0, 0)Temperatura (degC), Point: (15, 0)Temperatura (degC), Point: (25.641, 0)Temperatura (degC), Point: (27.821, 0)Temperatura (degC), Point: (29.128, 0)Temperatura (degC), Point: (29.99, 0)Temperatura (degC), Point: (0, 62.5)Temperatura (degC), Point: (15, 62.5)Temperatura (degC), Point: (25.641, 62.5)Temperatura (degC), Point: (27.821, 62.5)Temperatura (degC), Point: (29.128, 62.5)Temperatura (degC), Point: (29.99, 62.5)Temperatura (degC), Point: (0, 125)Temperatura (degC), Point: (15, 125)Temperatura (degC), Point: (25.641, 125)Temperatura (degC), Point: (27.821, 125)Temperatura (degC), Point: (29.128, 125)Temperatura (degC), Point: (29.99, 125)Temperatura (degC), Point: (0, 187.5)Temperatura (degC), Point: (15, 187.5)Temperatura (degC), Point: (25.641, 187.5)Temperatura (degC), Point: (27.821, 187.5)Temperatura (degC), Point: (29.128, 187.5)Temperatura (degC), Point: (29.99, 187.5)Temperatura (degC), Point: (0, 250)Temperatura (degC), Point: (15, 250)Temperatura (degC), Point: (25.641, 250)Temperatura (degC), Point: (27.821, 250)Temperatura (degC), Point: (29.128, 250)Temperatura (degC), Point: (29.99, 250)Temperatura (degC), Point: (0, 312.5)Temperatura (degC), Point: (15, 312.5)Temperatura (degC), Point: (25.641, 312.5)Temperatura (degC), Point: (27.821, 312.5)Temperatura (degC), Point: (29.128, 312.5)Temperatura (degC), Point: (29.99, 312.5)Temperatura (degC), Point: (0, 375)Temperatura (degC), Point: (15, 375)Temperatura (degC), Point: (25.641, 375)Temperatura (degC), Point: (27.821, 375)Temperatura (degC), Point: (29.128, 375)Temperatura (degC), Point: (29.99, 375)Temperatura (degC), Point: (0, 437.5)Temperatura (degC), Point: (15, 437.5)Temperatura (degC), Point: (25.641, 437.5)Temperatura (degC), Point: (27.821, 437.5)Temperatura (degC), Point: (29.128, 437.5)Temperatura (degC), Point: (29.99, 437.5)Temperatura (degC), Point: (0, 468.75)Temperatura (degC), Point: (15, 468.75)Temperatura (degC), Point: (25.641, 468.75)Temperatura (degC), Point: (27.821, 468.75)Temperatura (degC), Point: (29.128, 468.75)Temperatura (degC), Point: (29.99, 468.75)Temperatura (degC), Point: (0, 492.19)Temperatura (degC), Point: (15, 492.19)Temperatura (degC), Point: (25.641, 492.19)Temperatura (degC), Point: (27.821, 492.19)Temperatura (degC), Point: (29.128, 492.19)Temperatura (degC), Point: (29.99, 492.19)
16.000                   2.2500                   1.0000                   2000.0                   1000.0                   0.0000                   20.000                   20.000                   20.000                   20.000                   20.000                   20.035                   20.000                   20.000                   20.000                   20.000                   20.000                   20.035                   20.000                   20.000                   20.000                   20.000                   20.000                   20.035                   20.000                   20.000                   20.000                   20.000                   20.000                   20.035                   20.000                   20.000                   20.000                   20.000                   20.001                   20.035                   20.000                   20.000                   20.000                   20.000                   20.001                   20.035                   20.000                   20.000                   20.000                   20.000                   20.001                   20.035                   20.000                   20.000                   20.000                   20.000                   20.001                   20.035                   20.000                   20.000                   20.000                   20.000                   20.000                   20.033                   20.000                   20.000                   20.000                   20.000                   20.000                   20.023
16.000                   2.2500                   1.0000                   2000.0                   1000.0                   5.0000                   20.723                   23.085                   32.328                   35.543                   37.729                   38.870                   20.731                   23.127                   32.437                   35.621                   37.798                   38.941                   20.732                   23.128                   32.426                   35.591                   37.769                   38.917                   20.728                   23.110                   32.427                   35.620                   37.800                   38.945                   20.737                   23.147                   32.562                   35.789                   37.987                   39.139                   20.734                   23.133                   32.547                   35.786                   37.994                   39.151                   20.738                   23.155                   32.605                   35.838                   38.059                   39.223                   20.709                   23.049                   32.327                   35.552                   37.756                   38.913                   20.599                   22.600                   30.657                   33.478                   35.412                   36.443                   20.495                   21.921                   27.119                   28.874                   30.065                   30.732
16.000                   2.2500                   1.0000                   2000.0                   1000.0                   10.000                   24.807                   29.689                   41.867                   45.367                   47.642                   48.802                   24.832                   29.744                   41.913                   45.366                   47.633                   48.793                   24.832                   29.746                   41.896                   45.339                   47.607                   48.771                   24.827                   29.737                   41.952                   45.422                   47.696                   48.861                   24.858                   29.808                   42.121                   45.620                   47.910                   49.082                   24.852                   29.797                   42.146                   45.667                   47.971                   49.148                   24.863                   29.828                   42.190                   45.703                   48.016                   49.199                   24.692                   29.537                   41.737                   45.243                   47.540                   48.715                   23.986                   28.144                   38.750                   41.817                   43.833                   44.881                   23.223                   26.202                   33.207                   35.134                   36.375                   37.050
16.000                   2.2500                   1.0000                   2000.0                   1000.0                   15.000                   30.795                   37.159                   50.700                   54.360                   56.699                   57.873                   30.827                   37.208                   50.710                   54.342                   56.678                   57.853                   30.831                   37.216                   50.727                   54.359                   56.697                   57.873                   30.828                   37.220                   50.796                   54.448                   56.794                   57.974                   30.857                   37.272                   50.899                   54.569                   56.927                   58.112                   30.868                   37.300                   51.001                   54.696                   57.069                   58.260                   30.882                   37.332                   51.054                   54.752                   57.135                   58.331                   30.488                   36.800                   50.345                   54.019                   56.381                   57.568                   28.932                   34.349                   46.107                   49.317                   51.387                   52.446                   27.314                   31.226                   39.073                   41.090                   42.359                   43.037
16.000                   2.2500                   1.0000                   2000.0                   1000.0                   20.000                   37.742                   45.003                   59.271                   63.030                   65.415                   66.599                   37.785                   45.059                   59.320                   63.070                   65.454                   66.638                   37.783                   45.057                   59.307                   63.061                   65.450                   66.636                   37.784                   45.071                   59.380                   63.148                   65.546                   66.736                   37.814                   45.115                   59.452                   63.232                   65.639                   66.834                   37.834                   45.161                   59.580                   63.385                   65.806                   67.007                   37.847                   45.191                   59.641                   63.457                   65.888                   67.095                   37.169                   44.362                   58.613                   62.390                   64.798                   65.993                   34.651                   40.822                   53.168                   56.464                   58.569                   59.634                   32.145                   36.626                   44.909                   46.975                   48.259                   48.938
16.000                   2.2500                   1.0000                   2000.0                   1000.0                   25.000                   45.329                   53.095                   67.667                   71.485                   73.904                   75.096                   45.384                   53.169                   67.806                   71.633                   74.049                   75.240                   45.372                   53.145                   67.721                   71.552                   73.978                   75.173                   45.377                   53.168                   67.789                   71.631                   74.067                   75.265                   45.409                   53.210                   67.854                   71.704                   74.148                   75.351                   45.434                   53.261                   67.975                   71.847                   74.303                   75.511                   45.443                   53.285                   68.041                   71.931                   74.399                   75.612                   44.440                   52.125                   66.656                   70.493                   72.931                   74.133                   40.887                   47.473                   60.033                   63.374                   65.503                   66.572                   37.468                   42.277                   50.724                   52.811                   54.103                   54.782
16.000                   2.2500                   1.0000                   2000.0                   1000.0                   30.000                   53.618                   61.469                   76.095                   79.943                   82.384                   83.582                   53.679                   61.550                   76.260                   80.119                   82.557                   83.754                   53.659                   61.514                   76.155                   80.020                   82.469                   83.669                   53.666                   61.539                   76.219                   80.093                   82.552                   83.756                   53.704                   61.589                   76.298                   80.183                   82.650                   83.858                   53.721                   61.627                   76.394                   80.296                   82.774                   83.988                   53.709                   61.630                   76.441                   80.363                   82.853                   84.072                   52.240                   59.997                   74.561                   78.424                   80.882                   82.088                   47.670                   54.306                   66.869                   70.227                   72.369                   73.441                   43.508                   48.358                   56.788                   58.875                   60.168                   60.846
16.000                   2.2500                   1.0000                   2000.0                   1000.0                   35.000                   61.908                   69.842                   84.522                   88.400                   90.864                   92.067                   61.975                   69.931                   84.713                   88.604                   91.065                   92.267                   61.946                   69.884                   84.588                   88.487                   90.960                   92.166                   61.955                   69.910                   84.649                   88.556                   91.037                   92.247                   61.998                   69.969                   84.742                   88.661                   91.151                   92.365                   62.008                   69.994                   84.812                   88.745                   91.246                   92.465                   61.976                   69.976                   84.841                   88.795                   91.308                   92.532                   60.041                   67.870                   82.466                   86.356                   88.832                   90.042                   54.454                   61.140                   73.705                   77.080                   79.235                   80.310                   49.548                   54.438                   62.851                   64.939                   66.233                   66.910
16.000                   2.2500                   1.0000                   2000.0                   1000.0                   40.000                   70.197                   78.215                   92.950                   96.858                   99.344                   100.55                   70.271                   78.312                   93.166                   97.090                   99.573                   100.78                   70.233                   78.253                   93.022                   96.955                   99.451                   100.66                   70.244                   78.282                   93.079                   97.019                   99.523                   100.74                   70.292                   78.348                   93.187                   97.139                   99.652                   100.87                   70.295                   78.361                   93.230                   97.194                   99.717                   100.94                   70.243                   78.322                   93.241                   97.228                   99.762                   100.99                   67.842                   75.742                   90.372                   94.287                   96.782                   97.997                   61.237                   67.973                   80.542                   83.933                   86.101                   87.179                   55.588                   60.518                   68.914                   71.002                   72.298                   72.974
16.000                   2.2500                   1.0000                   2000.0                   1000.0                   45.000                   78.718                   86.755                   101.57                   105.52                   108.03                   109.25                   78.793                   86.852                   101.78                   105.75                   108.26                   109.47                   78.750                   86.790                   101.65                   105.62                   108.14                   109.36                   78.762                   86.817                   101.70                   105.68                   108.21                   109.43                   78.814                   86.889                   101.82                   105.81                   108.35                   109.58                   78.806                   86.889                   101.84                   105.84                   108.39                   109.62                   78.710                   86.805                   101.81                   105.83                   108.39                   109.63                   75.739                   83.646                   98.336                   102.28                   104.80                   106.02                   68.230                   74.960                   87.554                   90.967                   93.151                   94.233                   62.007                   66.924                   75.302                   77.392                   78.690                   79.366
16.000                   2.2500                   1.0000                   2000.0                   1000.0                   50.000                   87.296                   95.336                   110.25                   114.23                   116.77                   118.00                   87.371                   95.431                   110.44                   114.45                   116.99                   118.21                   87.325                   95.368                   110.32                   114.33                   116.88                   118.10                   87.336                   95.395                   110.37                   114.38                   116.94                   118.17                   87.391                   95.471                   110.49                   114.52                   117.09                   118.33                   87.372                   95.457                   110.50                   114.54                   117.12                   118.36                   87.227                   95.323                   110.41                   114.48                   117.07                   118.31                   83.661                   91.559                   106.31                   110.30                   112.84                   114.06                   75.276                   81.985                   94.611                   98.046                   100.25                   101.33                   68.521                   73.411                   81.772                   83.863                   85.163                   85.839
16.000                   2.2500                   1.0000                   2000.0                   1000.0                   55.000                   95.875                   103.92                   118.92                   122.95                   125.52                   126.75                   95.949                   104.01                   119.10                   123.15                   125.72                   126.95                   95.901                   103.95                   118.99                   123.04                   125.62                   126.85                   95.911                   103.97                   119.04                   123.09                   125.68                   126.92                   95.969                   104.05                   119.17                   123.24                   125.84                   127.08                   95.939                   104.03                   119.16                   123.24                   125.85                   127.09                   95.744                   103.84                   119.02                   123.12                   125.74                   126.99                   91.583                   99.471                   114.29                   118.31                   120.87                   122.11                   82.322                   89.010                   101.67                   105.12                   107.34                   108.43                   75.035                   79.897                   88.241                   90.334                   91.637                   92.312
16.000                   2.2500                   1.0000                   2000.0                   1000.0                   60.000                   104.45                   112.50                   127.59                   131.66                   134.26                   135.50                   104.53                   112.59                   127.76                   131.85                   134.45                   135.69                   104.48                   112.53                   127.66                   131.74                   134.35                   135.60                   104.49                   112.55                   127.70                   131.80                   134.42                   135.66                   104.55                   112.64                   127.85                   131.96                   134.58                   135.83                   104.51                   112.59                   127.82                   131.94                   134.57                   135.83                   104.26                   112.36                   127.63                   131.77                   134.41                   135.67                   99.505                   107.38                   122.27                   126.32                   128.91                   130.15                   89.368                   96.034                   108.72                   112.20                   114.44                   115.53                   81.549                   86.384                   94.711                   96.805                   98.110                   98.785
16.000                   2.2500                   1.0000                   2000.0                   1000.0                   65.000                   113.03                   121.08                   136.26                   140.37                   143.00                   144.25                   113.11                   121.17                   136.42                   140.55                   143.18                   144.43                   113.05                   121.10                   136.33                   140.45                   143.09                   144.34                   113.06                   121.13                   136.37                   140.51                   143.15                   144.41                   113.12                   121.22                   136.52                   140.67                   143.33                   144.59                   113.07                   121.16                   136.48                   140.64                   143.30                   144.56                   112.78                   120.88                   136.24                   140.41                   143.09                   144.35                   107.43                   115.30                   130.25                   134.33                   136.95                   138.19                   96.414                   103.06                   115.78                   119.28                   121.53                   122.63                   88.063                   92.871                   101.18                   103.28                   104.58                   105.26
16.000                   2.2500                   1.0000                   2000.0                   1000.0                   70.000                   121.70                   129.78                   145.11                   149.26                   151.93                   153.18                   121.79                   129.88                   145.30                   149.48                   152.14                   153.39                   121.72                   129.80                   145.17                   149.34                   152.01                   153.27                   121.72                   129.82                   145.21                   149.39                   152.07                   153.33                   121.80                   129.93                   145.38                   149.58                   152.27                   153.53                   121.73                   129.85                   145.31                   149.52                   152.21                   153.48                   121.35                   129.48                   144.99                   149.21                   151.91                   153.19                   115.34                   123.23                   138.31                   142.43                   145.07                   146.33                   103.56                   110.20                   123.01                   126.54                   128.81                   129.91                   94.787                   99.578                   107.90                   110.00                   111.31                   111.99
16.000                   2.2500                   1.0000                   2000.0                   1000.0                   75.000                   130.39                   138.51                   154.00                   158.20                   160.90                   162.16                   130.49                   138.64                   154.23                   158.45                   161.14                   162.41                   130.40                   138.53                   154.05                   158.27                   160.98                   162.24                   130.41                   138.54                   154.09                   158.32                   161.03                   162.30                   130.50                   138.67                   154.29                   158.54                   161.25                   162.53                   130.40                   138.56                   154.18                   158.44                   161.17                   162.45                   129.94                   138.11                   153.77                   158.04                   160.78                   162.06                   123.25                   131.17                   146.38                   150.55                   153.22                   154.48                   110.72                   117.38                   130.28                   133.84                   136.13                   137.24                   101.56                   106.34                   114.68                   116.79                   118.10                   118.78