% Model:              batchmodel_COIL_N_16_COIL_kr_3_COIL_kh_2_FUNZ_freq_6000_FUNZ_I_eff_1000.mph
% Version:            COMSOL 6.0.0.318
% Date:               Feb 8 2022, 23:51
% Table:              Tabella 1 - GRIGLIA_T
% COIL_N                 COIL_kr                  COIL_kh                  FUNZ_freq                FUNZ_I_eff               Time (s)                 Temperatura (degC), Point: (0, 0)Temperatura (degC), Point: (15, 0)Temperatura (degC), Point: (27.483, 0)Temperatura (degC), Point: (28.742, 0)Temperatura (degC), Point: (29.497, 0)Temperatura (degC), Point: (29.99, 0)Temperatura (degC), Point: (0, 62.5)Temperatura (degC), Point: (15, 62.5)Temperatura (degC), Point: (27.483, 62.5)Temperatura (degC), Point: (28.742, 62.5)Temperatura (degC), Point: (29.497, 62.5)Temperatura (degC), Point: (29.99, 62.5)Temperatura (degC), Point: (0, 125)Temperatura (degC), Point: (15, 125)Temperatura (degC), Point: (27.483, 125)Temperatura (degC), Point: (28.742, 125)Temperatura (degC), Point: (29.497, 125)Temperatura (degC), Point: (29.99, 125)Temperatura (degC), Point: (0, 187.5)Temperatura (degC), Point: (15, 187.5)Temperatura (degC), Point: (27.483, 187.5)Temperatura (degC), Point: (28.742, 187.5)Temperatura (degC), Point: (29.497, 187.5)Temperatura (degC), Point: (29.99, 187.5)Temperatura (degC), Point: (0, 250)Temperatura (degC), Point: (15, 250)Temperatura (degC), Point: (27.483, 250)Temperatura (degC), Point: (28.742, 250)Temperatura (degC), Point: (29.497, 250)Temperatura (degC), Point: (29.99, 250)Temperatura (degC), Point: (0, 312.5)Temperatura (degC), Point: (15, 312.5)Temperatura (degC), Point: (27.483, 312.5)Temperatura (degC), Point: (28.742, 312.5)Temperatura (degC), Point: (29.497, 312.5)Temperatura (degC), Point: (29.99, 312.5)Temperatura (degC), Point: (0, 375)Temperatura (degC), Point: (15, 375)Temperatura (degC), Point: (27.483, 375)Temperatura (degC), Point: (28.742, 375)Temperatura (degC), Point: (29.497, 375)Temperatura (degC), Point: (29.99, 375)Temperatura (degC), Point: (0, 437.5)Temperatura (degC), Point: (15, 437.5)Temperatura (degC), Point: (27.483, 437.5)Temperatura (degC), Point: (28.742, 437.5)Temperatura (degC), Point: (29.497, 437.5)Temperatura (degC), Point: (29.99, 437.5)Temperatura (degC), Point: (0, 468.75)Temperatura (degC), Point: (15, 468.75)Temperatura (degC), Point: (27.483, 468.75)Temperatura (degC), Point: (28.742, 468.75)Temperatura (degC), Point: (29.497, 468.75)Temperatura (degC), Point: (29.99, 468.75)Temperatura (degC), Point: (0, 492.19)Temperatura (degC), Point: (15, 492.19)Temperatura (degC), Point: (27.483, 492.19)Temperatura (degC), Point: (28.742, 492.19)Temperatura (degC), Point: (29.497, 492.19)Temperatura (degC), Point: (29.99, 492.19)
16.000                   3.0000                   2.0000                   6000.0                   1000.0                   0.0000                   20.000                   20.000                   20.000                   20.000                   20.003                   20.091                   20.000                   20.000                   20.000                   20.000                   20.003                   20.091                   20.000                   20.000                   20.000                   20.000                   20.003                   20.091                   20.000                   20.000                   20.000                   20.000                   20.003                   20.091                   20.000                   20.000                   20.000                   20.000                   20.003                   20.091                   20.000                   20.000                   20.000                   20.000                   20.003                   20.091                   20.000                   20.000                   20.000                   20.000                   20.003                   20.091                   20.000                   20.000                   20.000                   20.000                   20.003                   20.090                   20.000                   20.000                   20.000                   20.000                   20.002                   20.085                   20.000                   20.000                   20.000                   20.000                   20.001                   20.063
16.000                   3.0000                   2.0000                   6000.0                   1000.0                   5.0000                   21.319                   25.496                   46.495                   50.169                   52.530                   53.717                   21.341                   25.669                   47.644                   51.363                   53.729                   54.912                   21.317                   25.558                   47.227                   50.947                   53.317                   54.496                   21.283                   25.418                   46.751                   50.444                   52.817                   54.005                   21.337                   25.586                   47.007                   50.757                   53.134                   54.323                   21.292                   25.444                   46.876                   50.619                   53.000                   54.185                   21.350                   25.673                   47.756                   51.536                   53.917                   55.104                   21.235                   25.124                   45.131                   48.746                   51.075                   52.246                   21.113                   24.604                   42.536                   45.787                   47.887                   48.959                   21.088                   23.982                   36.720                   38.917                   40.324                   41.072
16.000                   3.0000                   2.0000                   6000.0                   1000.0                   10.000                   29.000                   37.780                   64.577                   68.541                   71.012                   72.224                   29.145                   38.107                   65.024                   68.969                   71.446                   72.664                   29.092                   38.072                   65.914                   69.902                   72.424                   73.650                   28.949                   37.754                   64.618                   68.518                   70.994                   72.210                   29.167                   38.103                   65.133                   69.154                   71.627                   72.838                   28.925                   37.675                   64.297                   68.221                   70.692                   71.911                   29.211                   38.263                   66.035                   70.080                   72.492                   73.699                   28.429                   36.668                   61.966                   65.758                   68.157                   69.344                   27.439                   34.725                   57.270                   60.674                   62.832                   63.915                   26.526                   32.276                   48.436                   50.726                   52.162                   52.915
16.000                   3.0000                   2.0000                   6000.0                   1000.0                   15.000                   40.857                   51.966                   81.576                   85.734                   88.289                   89.524                   41.180                   52.521                   82.678                   86.782                   89.325                   90.560                   41.116                   52.546                   83.779                   87.980                   90.588                   91.831                   40.845                   52.024                   81.971                   86.026                   88.563                   89.794                   41.243                   52.551                   82.756                   86.909                   89.428                   90.653                   40.606                   51.534                   80.607                   84.664                   87.198                   88.431                   41.198                   52.552                   83.046                   87.266                   89.774                   91.003                   39.432                   49.790                   77.473                   81.396                   83.856                   85.059                   37.022                   46.114                   70.640                   74.147                   76.351                   77.445                   34.799                   41.936                   59.496                   61.835                   63.290                   64.046
16.000                   3.0000                   2.0000                   6000.0                   1000.0                   20.000                   54.593                   67.188                   99.010                   103.34                   105.99                   107.26                   55.170                   68.084                   100.90                   105.20                   107.82                   109.08                   55.063                   68.085                   101.94                   106.33                   109.02                   110.28                   54.696                   67.427                   99.794                   103.99                   106.60                   107.85                   55.300                   68.162                   100.77                   105.15                   107.74                   108.99                   54.081                   66.365                   97.409                   101.66                   104.29                   105.54                   55.059                   67.940                   100.98                   105.37                   107.95                   109.20                   51.969                   63.548                   92.735                   96.770                   99.291                   100.51                   47.882                   57.971                   83.661                   87.247                   89.491                   90.596                   44.319                   52.215                   70.533                   72.903                   74.372                   75.130
16.000                   3.0000                   2.0000                   6000.0                   1000.0                   25.000                   69.412                   82.957                   116.38                   120.85                   123.59                   124.89                   70.243                   84.168                   118.85                   123.32                   126.01                   127.29                   70.117                   84.177                   119.90                   124.46                   127.22                   128.50                   69.731                   83.494                   117.70                   122.02                   124.69                   125.97                   70.494                   84.364                   118.65                   123.21                   125.88                   127.16                   68.676                   81.850                   114.46                   118.90                   121.62                   122.90                   69.993                   83.878                   118.80                   123.32                   125.98                   127.25                   65.364                   77.691                   107.96                   112.10                   114.68                   115.92                   59.491                   70.169                   96.654                   100.31                   102.60                   103.72                   54.649                   62.979                   81.752                   84.147                   85.628                   86.388
16.000                   3.0000                   2.0000                   6000.0                   1000.0                   30.000                   84.971                   99.074                   133.53                   138.13                   140.95                   142.27                   86.034                   100.54                   136.30                   140.89                   143.64                   144.94                   85.929                   100.62                   137.53                   142.22                   145.03                   146.34                   85.606                   100.02                   135.56                   139.97                   142.72                   144.01                   86.466                   100.93                   136.24                   140.91                   143.66                   144.96                   84.083                   97.832                   131.67                   136.26                   139.06                   140.37                   85.658                   100.15                   136.19                   140.81                   143.55                   144.84                   79.334                   92.107                   123.21                   127.46                   130.11                   131.37                   71.621                   82.642                   109.72                   113.45                   115.79                   116.92                   65.582                   74.145                   93.202                   95.619                   97.113                   97.874
16.000                   3.0000                   2.0000                   6000.0                   1000.0                   35.000                   100.53                   115.19                   150.69                   155.41                   158.31                   159.65                   101.82                   116.90                   153.76                   158.47                   161.28                   162.60                   101.74                   117.06                   155.16                   159.98                   162.85                   164.18                   101.48                   116.55                   153.42                   157.93                   160.74                   162.06                   102.44                   117.49                   153.83                   158.61                   161.44                   162.76                   99.490                   113.81                   148.87                   153.62                   156.50                   157.83                   101.32                   116.42                   153.58                   158.30                   161.12                   162.43                   93.303                   106.52                   138.47                   142.82                   145.53                   146.81                   83.750                   95.115                   122.79                   126.59                   128.97                   130.12                   76.515                   85.311                   104.65                   107.09                   108.60                   109.36
16.000                   3.0000                   2.0000                   6000.0                   1000.0                   40.000                   116.61                   131.67                   168.03                   172.86                   175.83                   177.19                   118.17                   133.68                   171.49                   176.31                   179.19                   180.52                   118.09                   133.84                   172.80                   177.73                   180.67                   182.00                   117.94                   133.44                   171.20                   175.83                   178.72                   180.06                   119.08                   134.61                   171.97                   176.89                   179.79                   181.13                   115.63                   130.43                   166.74                   171.60                   174.56                   175.91                   117.51                   133.05                   171.15                   175.99                   178.89                   180.22                   107.65                   121.19                   153.89                   158.34                   161.12                   162.42                   96.271                   107.86                   136.08                   139.96                   142.38                   143.54                   87.955                   96.871                   116.43                   118.89                   120.41                   121.18
16.000                   3.0000                   2.0000                   6000.0                   1000.0                   45.000                   132.87                   148.26                   185.43                   190.37                   193.42                   194.79                   134.69                   150.59                   189.32                   194.25                   197.19                   198.54                   134.62                   150.73                   190.44                   195.47                   198.47                   199.83                   134.58                   150.45                   188.95                   193.72                   196.69                   198.05                   135.94                   151.90                   190.30                   195.34                   198.33                   199.69                   132.00                   147.26                   184.81                   189.79                   192.81                   194.19                   133.87                   149.79                   188.78                   193.75                   196.73                   198.09                   122.11                   135.93                   169.36                   173.92                   176.76                   178.08                   108.92                   120.70                   149.44                   153.39                   155.87                   157.04                   99.561                   108.56                   128.31                   130.80                   132.33                   133.10
16.000                   3.0000                   2.0000                   6000.0                   1000.0                   50.000                   149.14                   164.87                   202.85                   207.90                   211.01                   212.40                   151.24                   167.52                   207.17                   212.21                   215.22                   216.58                   151.17                   167.65                   208.12                   213.25                   216.33                   217.70                   151.26                   167.49                   206.74                   211.64                   214.69                   216.08                   152.83                   169.22                   208.65                   213.83                   216.89                   218.28                   148.41                   164.13                   202.90                   207.99                   211.09                   212.49                   150.26                   166.56                   206.44                   211.53                   214.60                   215.98                   136.60                   150.70                   184.86                   189.53                   192.44                   193.77                   121.60                   133.57                   162.83                   166.86                   169.38                   170.57                   111.20                   120.29                   140.23                   142.75                   144.30                   145.07
16.000                   3.0000                   2.0000                   6000.0                   1000.0                   55.000                   165.67                   181.70                   220.49                   225.65                   228.84                   230.25                   168.15                   184.80                   225.46                   230.64                   233.75                   235.13                   168.15                   185.00                   226.44                   231.71                   234.88                   236.27                   168.33                   184.92                   225.14                   230.20                   233.35                   234.76                   170.10                   186.89                   227.38                   232.73                   235.89                   237.30                   165.40                   181.50                   221.32                   226.55                   229.74                   231.16                   166.98                   183.65                   224.53                   229.81                   232.97                   234.37                   151.45                   165.85                   200.84                   205.63                   208.62                   209.98                   134.77                   146.95                   176.77                   180.89                   183.47                   184.67                   123.46                   132.64                   152.81                   155.35                   156.92                   157.70
16.000                   3.0000                   2.0000                   6000.0                   1000.0                   60.000                   182.20                   198.53                   238.12                   243.40                   246.67                   248.09                   185.06                   202.08                   243.74                   249.07                   252.27                   253.68                   185.13                   202.34                   244.77                   250.18                   253.43                   254.85                   185.40                   202.35                   243.54                   248.76                   252.00                   253.44                   187.38                   204.56                   246.12                   251.63                   254.89                   256.32                   182.38                   198.88                   239.74                   245.11                   248.39                   249.83                   183.71                   200.74                   242.62                   248.10                   251.34                   252.76                   166.31                   181.01                   216.82                   221.74                   224.81                   226.18                   147.95                   160.33                   190.72                   194.93                   197.56                   198.77                   135.72                   144.99                   165.38                   167.96                   169.55                   170.33
16.000                   3.0000                   2.0000                   6000.0                   1000.0                   65.000                   198.73                   215.35                   255.76                   261.15                   264.50                   265.94                   201.96                   219.36                   262.02                   267.50                   270.80                   272.23                   202.11                   219.68                   263.09                   268.64                   271.98                   273.42                   202.47                   219.78                   261.94                   267.32                   270.66                   272.12                   204.66                   222.23                   264.86                   270.53                   273.89                   275.34                   199.37                   216.26                   258.17                   263.67                   267.03                   268.50                   200.44                   217.83                   260.72                   266.38                   269.70                   271.15                   181.16                   196.16                   232.80                   237.85                   240.99                   242.39                   161.13                   173.70                   204.67                   208.96                   211.64                   212.87                   147.97                   157.34                   177.96                   180.57                   182.17                   182.96
16.000                   3.0000                   2.0000                   6000.0                   1000.0                   70.000                   215.26                   232.18                   273.39                   278.90                   282.32                   283.78                   218.87                   236.64                   280.31                   285.93                   289.33                   290.78                   219.09                   237.03                   281.42                   287.10                   290.53                   291.99                   219.54                   237.22                   280.34                   285.88                   289.32                   290.80                   221.93                   239.91                   283.59                   289.44                   292.89                   294.37                   216.35                   233.63                   276.59                   282.22                   285.68                   287.17                   217.16                   234.92                   278.81                   284.66                   288.07                   289.54                   196.02                   211.31                   248.79                   253.95                   257.18                   258.59                   174.30                   187.08                   218.61                   222.99                   225.73                   226.97                   160.23                   169.69                   190.54                   193.17                   194.80                   195.59
16.000                   3.0000                   2.0000                   6000.0                   1000.0                   75.000                   231.79                   249.02                   291.04                   296.67                   300.17                   301.64                   235.78                   253.92                   298.61                   304.38                   307.87                   309.36                   236.07                   254.37                   299.75                   305.57                   309.09                   310.58                   236.61                   254.65                   298.76                   304.45                   307.99                   309.49                   239.20                   257.57                   302.31                   308.32                   311.88                   313.37                   233.33                   251.01                   295.00                   300.77                   304.32                   305.83                   233.89                   252.01                   296.92                   302.96                   306.46                   307.94                   210.88                   226.48                   264.79                   270.08                   273.38                   274.82                   187.49                   200.48                   232.58                   237.05                   239.84                   241.10                   172.50                   182.06                   203.14                   205.80                   207.44                   208.24