% Model:              batchmodel_COIL_N_16_COIL_kr_1.5_COIL_kh_1.5_FUNZ_freq_6000_FUNZ_I_eff_2500.mph
% Version:            COMSOL 6.0.0.318
% Date:               Feb 8 2022, 21:40
% Table:              Tabella 1 - GRIGLIA_T
% COIL_N                 COIL_kr                  COIL_kh                  FUNZ_freq                FUNZ_I_eff               Time (s)                 Temperatura (degC), Point: (0, 0)Temperatura (degC), Point: (15, 0)Temperatura (degC), Point: (27.483, 0)Temperatura (degC), Point: (28.742, 0)Temperatura (degC), Point: (29.497, 0)Temperatura (degC), Point: (29.99, 0)Temperatura (degC), Point: (0, 62.5)Temperatura (degC), Point: (15, 62.5)Temperatura (degC), Point: (27.483, 62.5)Temperatura (degC), Point: (28.742, 62.5)Temperatura (degC), Point: (29.497, 62.5)Temperatura (degC), Point: (29.99, 62.5)Temperatura (degC), Point: (0, 125)Temperatura (degC), Point: (15, 125)Temperatura (degC), Point: (27.483, 125)Temperatura (degC), Point: (28.742, 125)Temperatura (degC), Point: (29.497, 125)Temperatura (degC), Point: (29.99, 125)Temperatura (degC), Point: (0, 187.5)Temperatura (degC), Point: (15, 187.5)Temperatura (degC), Point: (27.483, 187.5)Temperatura (degC), Point: (28.742, 187.5)Temperatura (degC), Point: (29.497, 187.5)Temperatura (degC), Point: (29.99, 187.5)Temperatura (degC), Point: (0, 250)Temperatura (degC), Point: (15, 250)Temperatura (degC), Point: (27.483, 250)Temperatura (degC), Point: (28.742, 250)Temperatura (degC), Point: (29.497, 250)Temperatura (degC), Point: (29.99, 250)Temperatura (degC), Point: (0, 312.5)Temperatura (degC), Point: (15, 312.5)Temperatura (degC), Point: (27.483, 312.5)Temperatura (degC), Point: (28.742, 312.5)Temperatura (degC), Point: (29.497, 312.5)Temperatura (degC), Point: (29.99, 312.5)Temperatura (degC), Point: (0, 375)Temperatura (degC), Point: (15, 375)Temperatura (degC), Point: (27.483, 375)Temperatura (degC), Point: (28.742, 375)Temperatura (degC), Point: (29.497, 375)Temperatura (degC), Point: (29.99, 375)Temperatura (degC), Point: (0, 437.5)Temperatura (degC), Point: (15, 437.5)Temperatura (degC), Point: (27.483, 437.5)Temperatura (degC), Point: (28.742, 437.5)Temperatura (degC), Point: (29.497, 437.5)Temperatura (degC), Point: (29.99, 437.5)Temperatura (degC), Point: (0, 468.75)Temperatura (degC), Point: (15, 468.75)Temperatura (degC), Point: (27.483, 468.75)Temperatura (degC), Point: (28.742, 468.75)Temperatura (degC), Point: (29.497, 468.75)Temperatura (degC), Point: (29.99, 468.75)Temperatura (degC), Point: (0, 492.19)Temperatura (degC), Point: (15, 492.19)Temperatura (degC), Point: (27.483, 492.19)Temperatura (degC), Point: (28.742, 492.19)Temperatura (degC), Point: (29.497, 492.19)Temperatura (degC), Point: (29.99, 492.19)
16.000                   1.5000                   1.5000                   6000.0                   2500.0                   0.0000                   20.000                   20.000                   20.000                   20.000                   20.032                   20.245                   20.000                   20.000                   20.000                   20.000                   20.032                   20.246                   20.000                   20.000                   20.000                   20.000                   20.033                   20.249                   20.000                   20.000                   20.000                   20.000                   20.034                   20.254                   20.000                   20.000                   20.000                   20.000                   20.037                   20.261                   20.000                   20.000                   20.000                   20.000                   20.040                   20.270                   20.000                   20.000                   20.000                   20.000                   20.045                   20.280                   20.000                   20.000                   20.000                   20.000                   20.048                   20.291                   20.000                   20.000                   20.000                   20.000                   20.050                   20.296                   20.000                   20.000                   20.000                   20.000                   20.057                   20.318
16.000                   1.5000                   1.5000                   6000.0                   2500.0                   5.0000                   25.577                   42.662                   130.76                   146.95                   157.23                   161.26                   25.512                   42.350                   128.53                   144.34                   154.44                   158.43                   25.465                   42.079                   126.32                   141.70                   151.53                   155.47                   25.627                   42.883                   131.61                   148.05                   158.52                   162.53                   25.681                   43.212                   134.30                   151.30                   162.28                   166.56                   25.801                   43.841                   138.26                   155.99                   167.38                   171.78                   25.906                   44.405                   141.94                   160.46                   172.57                   177.13                   26.035                   45.067                   145.81                   164.84                   177.05                   181.70                   26.106                   45.466                   149.27                   168.98                   181.58                   186.36                   28.290                   49.544                   154.99                   174.67                   187.33                   192.19
16.000                   1.5000                   1.5000                   6000.0                   2500.0                   10.000                   56.834                   97.621                   224.39                   244.49                   257.04                   261.59                   56.385                   96.546                   221.35                   241.15                   253.53                   258.10                   55.997                   95.589                   217.63                   236.50                   248.00                   252.27                   56.673                   97.122                   223.16                   243.33                   256.07                   260.78                   57.075                   98.467                   228.78                   249.42                   262.14                   266.87                   57.741                   100.17                   235.01                   256.80                   270.26                   275.01                   58.278                   101.78                   242.32                   265.11                   278.73                   283.70                   58.962                   103.58                   249.00                   272.85                   287.45                   292.69                   59.231                   103.88                   248.13                   271.77                   286.48                   291.74                   66.707                   114.26                   262.18                   286.22                   301.04                   306.12
16.000                   1.5000                   1.5000                   6000.0                   2500.0                   15.000                   111.69                   165.76                   320.37                   344.56                   359.22                   364.26                   111.06                   165.11                   321.93                   346.72                   361.86                   367.12                   110.40                   164.24                   321.86                   347.30                   363.19                   368.55                   111.23                   165.63                   325.78                   351.31                   366.51                   371.70                   112.20                   167.74                   332.45                   358.74                   374.35                   379.82                   113.33                   169.77                   337.15                   364.44                   381.34                   386.94                   114.28                   171.84                   344.47                   372.79                   389.88                   395.71                   115.58                   174.38                   351.22                   380.08                   397.78                   403.56                   115.85                   174.36                   351.59                   380.86                   398.83                   404.71                   127.80                   188.33                   361.53                   389.48                   406.74                   412.39
16.000                   1.5000                   1.5000                   6000.0                   2500.0                   20.000                   175.82                   239.28                   421.65                   450.81                   468.14                   473.57                   175.43                   239.28                   423.59                   453.00                   470.45                   475.91                   174.79                   238.76                   424.35                   454.06                   471.66                   477.15                   175.51                   239.91                   427.53                   457.70                   475.59                   481.15                   176.80                   242.20                   433.87                   464.86                   483.11                   488.75                   178.12                   244.29                   439.25                   470.97                   489.68                   495.43                   179.25                   246.50                   446.47                   479.24                   498.52                   504.41                   180.90                   249.28                   453.69                   487.43                   507.23                   513.23                   180.96                   248.84                   453.31                   487.23                   507.13                   513.17                   193.64                   262.40                   456.96                   488.10                   506.51                   512.14
16.000                   1.5000                   1.5000                   6000.0                   2500.0                   25.000                   243.70                   315.16                   526.18                   560.92                   580.97                   586.85                   243.50                   315.29                   527.58                   562.50                   582.63                   588.53                   242.99                   314.99                   528.65                   563.87                   584.17                   590.10                   243.61                   316.05                   531.90                   567.63                   588.24                   594.24                   244.95                   318.28                   537.89                   574.42                   595.45                   601.54                   246.28                   320.40                   543.77                   581.21                   602.76                   608.96                   247.48                   322.62                   550.76                   589.31                   611.47                   617.81                   249.12                   325.31                   557.93                   597.60                   620.32                   626.78                   248.61                   324.06                   555.95                   595.59                   618.32                   624.79                   259.75                   335.16                   551.33                   586.67                   607.13                   613.03
16.000                   1.5000                   1.5000                   6000.0                   2500.0                   30.000                   310.02                   387.45                   617.90                   657.02                   679.28                   685.46                   309.95                   387.64                   618.96                   658.22                   680.54                   686.73                   309.55                   387.50                   620.15                   659.70                   682.20                   688.44                   310.09                   388.48                   623.20                   663.27                   686.10                   692.40                   311.42                   390.59                   628.54                   669.36                   692.66                   699.06                   312.74                   392.68                   634.31                   676.15                   700.06                   706.59                   313.95                   394.84                   640.90                   683.97                   708.59                   715.27                   315.50                   397.37                   647.95                   692.48                   717.92                   724.79                   314.35                   395.30                   644.72                   689.06                   714.38                   721.24                   323.99                   404.13                   633.97                   672.50                   694.61                   700.70
16.000                   1.5000                   1.5000                   6000.0                   2500.0                   35.000                   374.35                   456.09                   699.24                   742.68                   767.01                   773.40                   374.36                   456.30                   700.18                   743.80                   768.22                   774.61                   374.07                   456.30                   701.59                   745.56                   770.17                   776.61                   374.56                   457.24                   704.69                   749.30                   774.27                   780.78                   375.84                   459.22                   709.91                   755.42                   780.90                   787.50                   377.12                   461.25                   715.94                   762.68                   788.84                   795.59                   378.34                   463.38                   722.90                   771.11                   798.07                   804.99                   379.77                   465.76                   730.65                   780.73                   808.74                   815.87                   377.90                   462.81                   725.98                   775.78                   803.61                   810.73                   386.04                   469.38                   707.49                   749.37                   773.08                   779.28
16.000                   1.5000                   1.5000                   6000.0                   2500.0                   40.000                   434.93                   519.01                   768.70                   818.30                   845.12                   851.65                   434.99                   519.25                   770.01                   819.96                   846.88                   853.43                   434.81                   519.39                   772.20                   822.81                   849.98                   856.58                   435.28                   520.37                   776.66                   828.45                   856.04                   862.70                   436.51                   522.33                   783.90                   837.36                   865.50                   872.24                   437.76                   524.41                   792.41                   847.74                   876.53                   883.36                   438.99                   526.63                   802.50                   859.86                   889.38                   896.32                   440.29                   528.98                   813.64                   873.18                   903.52                   910.53                   437.65                   525.07                   806.27                   865.62                   896.04                   903.15                   444.22                   529.08                   771.46                   818.84                   844.55                   850.80
16.000                   1.5000                   1.5000                   6000.0                   2500.0                   45.000                   492.50                   577.20                   826.41                   870.10                   892.31                   897.39                   492.59                   577.47                   827.90                   871.76                   894.03                   899.12                   492.50                   577.75                   830.65                   874.90                   897.32                   902.43                   492.99                   578.79                   835.60                   880.37                   902.95                   908.06                   494.19                   580.76                   843.28                   888.71                   911.47                   916.55                   495.43                   582.90                   852.23                   898.49                   921.41                   926.47                   496.70                   585.25                   862.16                   909.06                   931.98                   936.97                   497.93                   587.66                   873.02                   920.52                   943.45                   948.37                   494.44                   582.87                   873.70                   926.34                   951.80                   957.29                   499.47                   584.08                   825.92                   868.42                   890.24                   895.23
16.000                   1.5000                   1.5000                   6000.0                   2500.0                   50.000                   544.62                   625.27                   856.91                   893.17                   911.68                   915.77                   544.75                   625.57                   858.07                   894.36                   912.87                   916.95                   544.76                   625.95                   860.27                   896.70                   915.23                   919.30                   545.29                   627.06                   864.07                   900.63                   919.15                   923.20                   546.52                   629.09                   869.93                   906.56                   924.99                   928.98                   547.84                   631.40                   876.92                   913.56                   931.87                   935.80                   549.24                   634.03                   884.71                   921.06                   939.07                   942.90                   550.54                   636.96                   895.59                   931.75                   949.48                   953.17                   546.00                   631.43                   913.24                   958.21                   979.97                   984.46                   549.36                   629.80                   860.32                   897.26                   916.14                   920.29
16.000                   1.5000                   1.5000                   6000.0                   2500.0                   55.000                   588.66                   663.09                   882.67                   915.07                   931.52                   935.03                   588.83                   663.41                   883.57                   915.96                   932.39                   935.88                   588.95                   663.91                   885.42                   917.82                   934.23                   937.71                   589.58                   665.13                   888.66                   921.00                   937.33                   940.78                   590.91                   667.32                   893.81                   925.93                   942.09                   945.47                   592.37                   669.92                   900.37                   932.14                   948.03                   951.32                   594.00                   673.01                   908.44                   939.55                   954.99                   958.14                   595.59                   676.79                   921.29                   951.64                   966.46                   969.39                   589.98                   671.15                   949.23                   987.57                   1005.2                   1008.5                   591.69                   666.71                   887.56                   919.77                   936.05                   939.47
16.000                   1.5000                   1.5000                   6000.0                   2500.0                   60.000                   626.98                   695.09                   904.20                   932.68                   947.10                   950.05                   627.17                   695.43                   904.97                   933.40                   947.79                   950.72                   627.40                   696.06                   906.70                   935.05                   949.38                   952.30                   628.15                   697.45                   909.81                   937.96                   952.17                   955.04                   629.60                   699.84                   914.90                   942.63                   956.57                   959.36                   631.23                   702.80                   921.80                   948.95                   962.51                   965.18                   633.10                   706.40                   931.03                   957.34                   970.31                   972.78                   635.04                   711.08                   945.56                   970.69                   982.72                   984.88                   628.69                   706.27                   982.55                   1012.6                   1024.6                   1026.2                   628.84                   698.56                   906.44                   932.30                   945.28                   947.86
16.000                   1.5000                   1.5000                   6000.0                   2500.0                   65.000                   659.67                   721.65                   921.67                   946.40                   958.93                   961.37                   659.89                   721.96                   922.40                   947.07                   959.55                   961.97                   660.23                   722.73                   924.22                   948.74                   961.14                   963.53                   661.08                   724.34                   927.58                   951.80                   964.00                   966.33                   662.65                   727.03                   933.13                   956.80                   968.65                   970.87                   664.44                   730.45                   941.03                   963.98                   975.33                   977.39                   666.51                   734.69                   952.20                   974.25                   984.88                   986.70                   668.76                   740.39                   969.18                   990.31                   999.89                   1001.3                   662.22                   736.92                   1014.5                   1039.1                   1047.3                   1047.6                   660.93                   725.63                   924.58                   945.78                   956.39                   958.36
16.000                   1.5000                   1.5000                   6000.0                   2500.0                   70.000                   686.44                   744.34                   935.37                   956.65                   967.39                   969.35                   686.68                   744.74                   936.19                   957.38                   968.06                   970.01                   687.09                   745.78                   938.35                   959.35                   969.91                   971.82                   688.01                   747.91                   942.36                   963.00                   973.31                   975.13                   689.62                   751.33                   948.99                   969.03                   978.91                   980.59                   691.45                   755.84                   958.63                   977.95                   987.25                   988.73                   693.56                   761.45                   972.62                   991.30                   999.85                   1001.0                   695.90                   768.87                   992.42                   1011.0                   1018.6                   1019.2                   689.99                   766.46                   1037.9                   1058.4                   1064.2                   1063.7                   687.60                   750.03                   943.72                   961.62                   970.42                   971.87
16.000                   1.5000                   1.5000                   6000.0                   2500.0                   75.000                   708.15                   766.74                   947.05                   965.12                   974.16                   975.67                   708.38                   767.36                   948.02                   965.99                   974.97                   976.46                   708.83                   768.84                   950.71                   968.46                   977.29                   978.72                   709.76                   771.77                   955.68                   973.05                   981.58                   982.91                   711.29                   776.30                   963.85                   980.66                   988.71                   989.87                   713.07                   782.24                   975.87                   992.21                   999.66                   1000.6                   715.13                   789.50                   992.94                   1009.3                   1016.0                   1016.5                   717.49                   798.52                   1014.6                   1031.2                   1037.0                   1036.9                   712.35                   796.81                   1055.1                   1072.1                   1076.3                   1075.3                   709.40                   775.31                   963.44                   978.76                   985.94                   986.88