% Model:              batchmodel_COIL_N_16_COIL_kr_3_COIL_kh_2_FUNZ_freq_10000_FUNZ_I_eff_2500.mph
% Version:            COMSOL 6.0.0.318
% Date:               Feb 9 2022, 00:34
% Table:              Tabella 1 - GRIGLIA_T
% COIL_N                 COIL_kr                  COIL_kh                  FUNZ_freq                FUNZ_I_eff               Time (s)                 Temperatura (degC), Point: (0, 0)Temperatura (degC), Point: (15, 0)Temperatura (degC), Point: (28.051, 0)Temperatura (degC), Point: (29.025, 0)Temperatura (degC), Point: (29.61, 0)Temperatura (degC), Point: (29.99, 0)Temperatura (degC), Point: (0, 62.5)Temperatura (degC), Point: (15, 62.5)Temperatura (degC), Point: (28.051, 62.5)Temperatura (degC), Point: (29.025, 62.5)Temperatura (degC), Point: (29.61, 62.5)Temperatura (degC), Point: (29.99, 62.5)Temperatura (degC), Point: (0, 125)Temperatura (degC), Point: (15, 125)Temperatura (degC), Point: (28.051, 125)Temperatura (degC), Point: (29.025, 125)Temperatura (degC), Point: (29.61, 125)Temperatura (degC), Point: (29.99, 125)Temperatura (degC), Point: (0, 187.5)Temperatura (degC), Point: (15, 187.5)Temperatura (degC), Point: (28.051, 187.5)Temperatura (degC), Point: (29.025, 187.5)Temperatura (degC), Point: (29.61, 187.5)Temperatura (degC), Point: (29.99, 187.5)Temperatura (degC), Point: (0, 250)Temperatura (degC), Point: (15, 250)Temperatura (degC), Point: (28.051, 250)Temperatura (degC), Point: (29.025, 250)Temperatura (degC), Point: (29.61, 250)Temperatura (degC), Point: (29.99, 250)Temperatura (degC), Point: (0, 312.5)Temperatura (degC), Point: (15, 312.5)Temperatura (degC), Point: (28.051, 312.5)Temperatura (degC), Point: (29.025, 312.5)Temperatura (degC), Point: (29.61, 312.5)Temperatura (degC), Point: (29.99, 312.5)Temperatura (degC), Point: (0, 375)Temperatura (degC), Point: (15, 375)Temperatura (degC), Point: (28.051, 375)Temperatura (degC), Point: (29.025, 375)Temperatura (degC), Point: (29.61, 375)Temperatura (degC), Point: (29.99, 375)Temperatura (degC), Point: (0, 437.5)Temperatura (degC), Point: (15, 437.5)Temperatura (degC), Point: (28.051, 437.5)Temperatura (degC), Point: (29.025, 437.5)Temperatura (degC), Point: (29.61, 437.5)Temperatura (degC), Point: (29.99, 437.5)Temperatura (degC), Point: (0, 468.75)Temperatura (degC), Point: (15, 468.75)Temperatura (degC), Point: (28.051, 468.75)Temperatura (degC), Point: (29.025, 468.75)Temperatura (degC), Point: (29.61, 468.75)Temperatura (degC), Point: (29.99, 468.75)Temperatura (degC), Point: (0, 492.19)Temperatura (degC), Point: (15, 492.19)Temperatura (degC), Point: (28.051, 492.19)Temperatura (degC), Point: (29.025, 492.19)Temperatura (degC), Point: (29.61, 492.19)Temperatura (degC), Point: (29.99, 492.19)
16.000                   3.0000                   2.0000                   10000                    2500.0                   0.0000                   20.000                   20.000                   20.000                   20.000                   20.079                   20.435                   20.000                   20.000                   20.000                   20.000                   20.079                   20.435                   20.000                   20.000                   20.000                   20.000                   20.079                   20.435                   20.000                   20.000                   20.000                   20.000                   20.079                   20.435                   20.000                   20.000                   20.000                   20.000                   20.079                   20.435                   20.000                   20.000                   20.000                   20.000                   20.079                   20.435                   20.000                   20.000                   20.000                   20.000                   20.079                   20.435                   20.000                   20.000                   20.000                   20.000                   20.077                   20.431                   20.000                   20.000                   20.000                   20.000                   20.070                   20.415                   20.000                   20.000                   20.000                   20.000                   20.054                   20.372
16.000                   3.0000                   2.0000                   10000                    2500.0                   5.0000                   26.470                   50.023                   185.03                   204.74                   217.19                   221.80                   26.447                   50.132                   185.42                   205.23                   217.74                   222.35                   26.427                   50.007                   184.56                   204.32                   216.79                   221.41                   26.433                   50.052                   184.69                   204.37                   216.83                   221.46                   26.449                   50.143                   185.33                   205.14                   217.68                   222.30                   26.446                   50.135                   185.40                   205.20                   217.74                   222.37                   26.474                   50.348                   186.80                   206.68                   219.23                   223.86                   26.327                   49.714                   182.93                   202.27                   214.50                   219.03                   25.969                   47.781                   170.87                   188.54                   199.78                   204.05                   29.285                   50.412                   158.86                   173.20                   182.19                   185.77
16.000                   3.0000                   2.0000                   10000                    2500.0                   10.000                   67.983                   124.17                   337.60                   367.33                   386.13                   391.72                   67.993                   124.12                   333.03                   360.46                   377.26                   383.14                   67.899                   124.03                   334.36                   362.05                   378.83                   384.75                   67.867                   123.88                   333.30                   360.86                   377.49                   383.37                   68.036                   124.40                   336.72                   364.93                   382.06                   387.87                   67.936                   124.06                   334.16                   361.90                   378.71                   384.68                   68.276                   124.98                   337.65                   365.95                   383.28                   388.93                   66.940                   122.14                   329.02                   356.20                   372.51                   377.87                   63.942                   114.36                   296.83                   319.88                   333.77                   338.70                   70.809                   115.61                   261.18                   278.16                   288.52                   292.40
16.000                   3.0000                   2.0000                   10000                    2500.0                   15.000                   138.67                   213.84                   473.31                   507.08                   526.73                   532.67                   138.59                   213.54                   471.34                   504.88                   524.42                   530.38                   138.56                   213.62                   471.70                   505.22                   524.75                   530.70                   138.47                   213.43                   471.07                   504.51                   524.02                   529.97                   138.81                   214.11                   472.85                   506.31                   525.78                   531.72                   138.54                   213.60                   472.04                   505.66                   525.26                   531.23                   139.20                   214.72                   473.78                   507.33                   526.84                   532.76                   135.58                   208.79                   458.06                   490.03                   508.75                   514.50                   127.74                   193.97                   414.16                   441.91                   458.43                   463.70                   129.98                   188.04                   360.01                   379.70                   391.67                   395.79
16.000                   3.0000                   2.0000                   10000                    2500.0                   20.000                   216.79                   304.28                   598.30                   636.28                   657.34                   663.79                   216.74                   304.34                   602.14                   642.10                   664.98                   671.37                   216.75                   304.40                   600.38                   639.37                   661.75                   668.16                   216.50                   303.77                   596.64                   634.94                   657.22                   663.61                   216.95                   304.54                   598.14                   636.02                   658.05                   664.48                   216.66                   304.23                   599.56                   638.57                   661.03                   667.34                   217.53                   305.55                   602.79                   641.97                   664.11                   670.53                   211.45                   296.60                   582.30                   619.42                   640.90                   647.28                   198.58                   275.64                   530.06                   562.63                   581.72                   587.38                   195.46                   262.08                   455.98                   478.34                   491.66                   495.96
16.000                   3.0000                   2.0000                   10000                    2500.0                   25.000                   295.92                   391.47                   712.79                   757.74                   782.61                   789.88                   296.02                   392.04                   719.53                   767.71                   794.28                   801.25                   296.00                   391.79                   714.52                   760.86                   786.75                   793.79                   295.57                   390.95                   712.00                   757.58                   784.03                   791.36                   295.99                   391.43                   710.04                   753.04                   778.26                   785.48                   295.84                   391.52                   712.97                   758.29                   783.87                   790.82                   296.72                   392.68                   714.74                   760.36                   786.05                   793.18                   288.43                   381.41                   691.37                   732.89                   757.37                   764.57                   271.10                   355.83                   636.37                   672.88                   694.00                   700.09                   263.79                   335.77                   546.01                   570.29                   584.63                   589.04
16.000                   3.0000                   2.0000                   10000                    2500.0                   30.000                   372.10                   471.84                   831.68                   890.73                   920.63                   927.75                   372.41                   472.81                   837.99                   897.71                   927.63                   934.67                   372.29                   472.26                   832.69                   891.90                   921.76                   928.84                   371.76                   471.49                   831.37                   890.58                   920.59                   927.72                   372.01                   471.52                   828.86                   887.59                   917.49                   924.62                   372.08                   471.94                   831.54                   890.52                   920.43                   927.54                   372.77                   472.63                   832.05                   891.11                   921.04                   928.14                   362.84                   460.02                   800.48                   856.62                   885.94                   893.18                   342.04                   431.48                   727.92                   770.82                   795.55                   802.13                   329.96                   406.28                   630.73                   657.59                   673.19                   677.72
16.000                   3.0000                   2.0000                   10000                    2500.0                   35.000                   442.21                   544.48                   940.60                   995.26                   1020.3                   1025.6                   442.68                   545.55                   946.45                   1001.7                   1026.6                   1031.6                   442.45                   544.89                   941.25                   996.12                   1021.2                   1026.4                   441.93                   544.29                   941.06                   996.03                   1021.1                   1026.3                   441.95                   543.98                   938.97                   994.15                   1019.4                   1024.7                   442.23                   544.62                   942.01                   997.33                   1022.4                   1027.5                   442.64                   544.90                   942.01                   997.19                   1022.4                   1027.6                   431.79                   531.62                   912.97                   969.43                   996.13                   1002.0                   408.64                   500.22                   818.24                   868.89                   895.15                   901.55                   393.03                   471.76                   700.66                   728.23                   744.19                   748.67
16.000                   3.0000                   2.0000                   10000                    2500.0                   40.000                   507.16                   609.48                   976.18                   1010.0                   1024.6                   1027.3                   507.74                   610.87                   1028.7                   1068.6                   1080.2                   1081.1                   507.43                   609.84                   981.60                   1017.4                   1032.4                   1035.0                   506.96                   609.42                   976.31                   1010.4                   1025.0                   1027.7                   506.77                   608.85                   975.60                   1010.8                   1026.1                   1029.0                   507.21                   609.54                   969.80                   1001.5                   1015.5                   1018.1                   507.38                   609.98                   1023.0                   1062.9                   1075.1                   1076.1                   495.84                   596.83                   988.29                   1030.8                   1047.1                   1049.8                   470.44                   563.04                   899.58                   947.09                   970.46                   975.75                   451.74                   531.30                   751.78                   779.24                   795.27                   799.57
16.000                   3.0000                   2.0000                   10000                    2500.0                   45.000                   564.30                   661.40                   973.69                   996.03                   1006.2                   1008.0                   565.05                   664.40                   1069.1                   1094.2                   1100.4                   1100.0                   564.50                   661.30                   978.54                   1003.2                   1014.4                   1016.5                   564.14                   661.09                   974.56                   997.76                   1008.3                   1010.3                   563.78                   660.12                   969.16                   993.38                   1004.8                   1007.0                   564.30                   661.25                   982.25                   1005.7                   1015.8                   1017.5                   564.49                   663.65                   1070.4                   1095.4                   1101.5                   1101.1                   552.94                   651.10                   1023.3                   1052.3                   1061.5                   1062.2                   525.62                   616.01                   939.59                   976.66                   994.78                   998.71                   504.26                   581.46                   795.48                   823.36                   838.88                   842.84
16.000                   3.0000                   2.0000                   10000                    2500.0                   50.000                   613.71                   703.63                   986.71                   1004.1                   1011.7                   1012.8                   614.67                   708.56                   1078.1                   1096.1                   1100.2                   1099.4                   613.76                   703.00                   985.41                   1004.6                   1013.3                   1014.7                   613.55                   703.13                   985.05                   1003.4                   1011.6                   1012.9                   613.05                   701.75                   976.25                   995.16                   1004.0                   1005.6                   613.61                   703.53                   1004.4                   1024.8                   1032.6                   1033.5                   614.03                   708.08                   1083.8                   1101.2                   1105.0                   1104.2                   603.20                   696.22                   1037.1                   1058.8                   1065.3                   1065.4                   575.10                   661.36                   961.17                   989.21                   1002.8                   1005.6                   551.70                   624.67                   836.56                   863.56                   878.23                   881.84
16.000                   3.0000                   2.0000                   10000                    2500.0                   55.000                   653.58                   737.91                   1008.0                   1023.0                   1028.7                   1029.1                   654.72                   744.23                   1078.3                   1092.7                   1095.8                   1094.8                   653.50                   736.58                   1000.5                   1016.7                   1023.4                   1024.1                   653.44                   737.11                   1002.3                   1017.9                   1024.2                   1024.9                   652.86                   735.40                   992.41                   1008.0                   1014.8                   1015.7                   653.42                   737.85                   1025.5                   1043.2                   1049.1                   1049.3                   654.07                   743.95                   1085.5                   1099.3                   1102.1                   1101.0                   644.37                   732.25                   1045.7                   1063.2                   1068.2                   1067.9                   616.93                   698.68                   987.33                   1010.5                   1020.8                   1022.5                   592.51                   660.84                   873.20                   898.63                   912.28                   915.50
16.000                   3.0000                   2.0000                   10000                    2500.0                   60.000                   686.17                   768.83                   1032.2                   1045.7                   1049.9                   1049.6                   687.40                   775.91                   1075.9                   1087.9                   1090.3                   1089.2                   686.00                   766.47                   1019.4                   1033.5                   1038.5                   1038.6                   686.07                   767.45                   1022.7                   1036.4                   1041.0                   1041.0                   685.46                   765.42                   1013.0                   1026.5                   1031.5                   1031.7                   685.99                   768.39                   1042.7                   1057.7                   1062.0                   1061.7                   686.77                   775.83                   1083.2                   1094.8                   1096.9                   1095.8                   678.44                   763.36                   1052.7                   1067.1                   1070.9                   1070.3                   652.63                   730.39                   1020.1                   1040.7                   1048.1                   1048.7                   627.89                   691.81                   904.78                   928.06                   940.38                   943.17
16.000                   3.0000                   2.0000                   10000                    2500.0                   65.000                   710.60                   800.24                   1049.8                   1061.4                   1064.3                   1063.6                   711.70                   806.91                   1075.0                   1085.0                   1086.9                   1085.7                   710.31                   797.41                   1038.1                   1050.1                   1053.6                   1053.2                   710.44                   798.67                   1041.2                   1052.9                   1056.2                   1055.7                   709.89                   796.57                   1034.2                   1045.9                   1049.4                   1049.0                   710.34                   799.42                   1054.5                   1066.7                   1069.8                   1069.0                   711.13                   806.83                   1080.7                   1090.5                   1092.1                   1090.9                   704.49                   794.34                   1059.1                   1070.9                   1073.7                   1072.8                   681.99                   760.19                   1046.1                   1063.3                   1068.4                   1068.1                   657.79                   717.67                   928.76                   949.50                   960.38                   962.74
16.000                   3.0000                   2.0000                   10000                    2500.0                   70.000                   732.12                   831.39                   1063.9                   1073.4                   1075.3                   1074.2                   733.10                   837.19                   1075.4                   1083.7                   1085.0                   1083.8                   731.70                   828.46                   1054.9                   1064.9                   1067.2                   1066.3                   731.89                   829.88                   1057.5                   1067.2                   1069.4                   1068.4                   731.37                   827.86                   1053.4                   1063.3                   1065.6                   1064.7                   731.75                   830.30                   1064.1                   1073.8                   1075.8                   1074.7                   732.57                   837.00                   1079.1                   1087.3                   1088.5                   1087.2                   727.09                   824.97                   1065.3                   1074.8                   1076.7                   1075.7                   707.42                   789.83                   1066.5                   1080.2                   1083.3                   1082.4                   684.40                   741.64                   948.91                   967.05                   976.46                   978.39
16.000                   3.0000                   2.0000                   10000                    2500.0                   75.000                   751.26                   861.66                   1072.8                   1080.3                   1081.4                   1080.2                   752.31                   866.13                   1078.1                   1084.9                   1085.8                   1084.4                   750.70                   859.21                   1067.5                   1075.5                   1076.8                   1075.6                   750.97                   860.55                   1069.4                   1077.1                   1078.4                   1077.1                   750.37                   858.79                   1067.3                   1075.3                   1076.6                   1075.4                   750.76                   860.54                   1071.7                   1079.2                   1080.4                   1079.2                   751.69                   865.67                   1079.9                   1086.8                   1087.5                   1086.2                   745.94                   854.87                   1071.6                   1079.3                   1080.5                   1079.3                   727.02                   820.18                   1077.0                   1087.5                   1089.4                   1088.2                   706.19                   763.94                   964.19                   979.77                   987.74                   989.24