% Model:              batchmodel_COIL_N_16_COIL_kr_2.25_COIL_kh_1.5_FUNZ_freq_6000_FUNZ_I_eff_4000.mph
% Version:            COMSOL 6.0.0.318
% Date:               Feb 8 2022, 22:54
% Table:              Tabella 1 - GRIGLIA_T
% COIL_N                 COIL_kr                  COIL_kh                  FUNZ_freq                FUNZ_I_eff               Time (s)                 Temperatura (degC), Point: (0, 0)Temperatura (degC), Point: (15, 0)Temperatura (degC), Point: (27.483, 0)Temperatura (degC), Point: (28.742, 0)Temperatura (degC), Point: (29.497, 0)Temperatura (degC), Point: (29.99, 0)Temperatura (degC), Point: (0, 62.5)Temperatura (degC), Point: (15, 62.5)Temperatura (degC), Point: (27.483, 62.5)Temperatura (degC), Point: (28.742, 62.5)Temperatura (degC), Point: (29.497, 62.5)Temperatura (degC), Point: (29.99, 62.5)Temperatura (degC), Point: (0, 125)Temperatura (degC), Point: (15, 125)Temperatura (degC), Point: (27.483, 125)Temperatura (degC), Point: (28.742, 125)Temperatura (degC), Point: (29.497, 125)Temperatura (degC), Point: (29.99, 125)Temperatura (degC), Point: (0, 187.5)Temperatura (degC), Point: (15, 187.5)Temperatura (degC), Point: (27.483, 187.5)Temperatura (degC), Point: (28.742, 187.5)Temperatura (degC), Point: (29.497, 187.5)Temperatura (degC), Point: (29.99, 187.5)Temperatura (degC), Point: (0, 250)Temperatura (degC), Point: (15, 250)Temperatura (degC), Point: (27.483, 250)Temperatura (degC), Point: (28.742, 250)Temperatura (degC), Point: (29.497, 250)Temperatura (degC), Point: (29.99, 250)Temperatura (degC), Point: (0, 312.5)Temperatura (degC), Point: (15, 312.5)Temperatura (degC), Point: (27.483, 312.5)Temperatura (degC), Point: (28.742, 312.5)Temperatura (degC), Point: (29.497, 312.5)Temperatura (degC), Point: (29.99, 312.5)Temperatura (degC), Point: (0, 375)Temperatura (degC), Point: (15, 375)Temperatura (degC), Point: (27.483, 375)Temperatura (degC), Point: (28.742, 375)Temperatura (degC), Point: (29.497, 375)Temperatura (degC), Point: (29.99, 375)Temperatura (degC), Point: (0, 437.5)Temperatura (degC), Point: (15, 437.5)Temperatura (degC), Point: (27.483, 437.5)Temperatura (degC), Point: (28.742, 437.5)Temperatura (degC), Point: (29.497, 437.5)Temperatura (degC), Point: (29.99, 437.5)Temperatura (degC), Point: (0, 468.75)Temperatura (degC), Point: (15, 468.75)Temperatura (degC), Point: (27.483, 468.75)Temperatura (degC), Point: (28.742, 468.75)Temperatura (degC), Point: (29.497, 468.75)Temperatura (degC), Point: (29.99, 468.75)Temperatura (degC), Point: (0, 492.19)Temperatura (degC), Point: (15, 492.19)Temperatura (degC), Point: (27.483, 492.19)Temperatura (degC), Point: (28.742, 492.19)Temperatura (degC), Point: (29.497, 492.19)Temperatura (degC), Point: (29.99, 492.19)
16.000                   2.2500                   1.5000                   6000.0                   4000.0                   0.0000                   20.000                   20.000                   20.000                   20.000                   20.124                   20.485                   20.000                   20.000                   20.000                   20.000                   20.124                   20.486                   20.000                   20.000                   20.000                   20.000                   20.124                   20.487                   20.000                   20.000                   20.000                   20.000                   20.125                   20.488                   20.000                   20.000                   20.000                   20.000                   20.125                   20.490                   20.000                   20.000                   20.000                   20.000                   20.126                   20.492                   20.000                   20.000                   20.000                   20.000                   20.127                   20.494                   20.000                   20.000                   20.000                   20.000                   20.128                   20.496                   20.000                   20.000                   20.000                   20.000                   20.127                   20.492                   20.000                   20.000                   20.000                   20.000                   20.112                   20.460
16.000                   2.2500                   1.5000                   6000.0                   4000.0                   5.0000                   29.705                   69.556                   300.30                   350.28                   380.45                   389.68                   29.646                   69.403                   300.64                   350.73                   380.94                   390.18                   29.669                   69.526                   301.23                   351.40                   381.69                   390.95                   29.690                   69.696                   302.36                   352.74                   383.10                   392.38                   29.691                   69.639                   301.93                   352.37                   382.79                   392.09                   29.737                   69.862                   303.12                   353.77                   384.30                   393.62                   29.729                   69.887                   303.75                   354.61                   385.27                   394.62                   29.732                   70.018                   304.91                   355.91                   386.60                   395.95                   29.473                   68.576                   294.25                   342.75                   372.10                   381.14                   32.676                   71.069                   264.68                   303.16                   326.88                   334.53
16.000                   2.2500                   1.5000                   6000.0                   4000.0                   10.000                   98.661                   193.10                   561.26                   637.36                   679.08                   690.36                   98.634                   193.13                   562.35                   638.52                   680.14                   691.43                   98.764                   193.44                   564.17                   641.17                   682.70                   693.93                   98.915                   193.78                   564.82                   641.54                   683.46                   694.79                   98.860                   193.69                   564.77                   641.62                   683.52                   694.85                   99.040                   194.08                   566.04                   642.84                   684.74                   696.08                   99.035                   194.16                   566.60                   643.77                   685.73                   697.05                   98.856                   193.86                   565.55                   642.25                   684.17                   695.52                   96.247                   187.40                   540.12                   612.10                   651.50                   662.20                   99.725                   184.35                   469.70                   522.36                   552.39                   560.84
16.000                   2.2500                   1.5000                   6000.0                   4000.0                   15.000                   204.02                   326.72                   776.50                   887.13                   940.12                   952.04                   204.04                   326.66                   776.01                   886.45                   939.42                   951.34                   204.27                   327.18                   779.95                   891.49                   944.53                   956.42                   204.47                   327.38                   778.73                   889.93                   942.95                   954.86                   204.41                   327.42                   780.68                   892.65                   945.81                   957.72                   204.62                   327.76                   781.67                   893.93                   947.12                   959.02                   204.63                   327.90                   783.33                   896.23                   949.55                   961.45                   203.92                   327.00                   783.67                   897.27                   950.83                   962.78                   197.85                   315.67                   737.10                   835.34                   886.30                   898.44                   199.70                   307.33                   643.73                   704.41                   737.39                   746.13
16.000                   2.2500                   1.5000                   6000.0                   4000.0                   20.000                   313.93                   446.81                   947.45                   1038.3                   1070.1                   1075.1                   313.89                   446.56                   938.28                   1028.8                   1061.5                   1066.9                   314.23                   447.20                   929.26                   1016.4                   1049.7                   1055.4                   314.38                   447.13                   909.85                   990.59                   1024.5                   1031.1                   314.39                   447.29                   904.74                   983.26                   1016.9                   1023.5                   314.61                   447.65                   900.06                   976.62                   1009.8                   1016.4                   314.68                   447.99                   897.81                   972.60                   1005.1                   1011.6                   313.56                   447.24                   890.25                   960.21                   990.77                   997.02                   304.09                   432.19                   883.39                   967.80                   1004.6                   1012.1                   300.12                   415.31                   740.14                   798.08                   829.49                   837.18
16.000                   2.2500                   1.5000                   6000.0                   4000.0                   25.000                   412.01                   545.36                   1105.7                   1150.3                   1160.0                   1159.5                   411.89                   544.53                   1090.0                   1137.0                   1147.6                   1147.3                   412.32                   544.62                   1047.3                   1098.4                   1111.1                   1111.4                   412.36                   543.00                   980.80                   1033.4                   1050.8                   1052.9                   412.48                   542.58                   947.99                   996.20                   1015.3                   1018.6                   412.77                   542.60                   926.77                   972.09                   991.58                   995.28                   413.01                   542.68                   912.72                   957.06                   976.93                   980.88                   412.01                   542.10                   906.85                   951.54                   971.99                   976.14                   400.08                   529.00                   968.93                   1027.2                   1047.8                   1050.8                   390.12                   501.75                   810.29                   866.20                   894.50                   901.01
16.000                   2.2500                   1.5000                   6000.0                   4000.0                   30.000                   494.67                   624.55                   1128.1                   1154.6                   1159.5                   1158.0                   494.45                   623.23                   1118.3                   1146.0                   1151.4                   1150.1                   494.90                   622.42                   1088.7                   1119.5                   1126.2                   1125.3                   494.73                   619.25                   1036.3                   1072.3                   1082.2                   1082.3                   494.88                   618.01                   1001.0                   1038.0                   1050.0                   1051.0                   495.21                   617.40                   972.93                   1007.7                   1021.0                   1022.8                   495.54                   616.67                   949.52                   982.32                   996.60                   999.12                   494.71                   615.34                   940.53                   974.95                   990.48                   993.38                   482.17                   608.89                   1074.5                   1110.8                   1119.3                   1118.8                   465.93                   570.93                   869.74                   920.19                   944.83                   950.14
16.000                   2.2500                   1.5000                   6000.0                   4000.0                   35.000                   564.06                   686.44                   1123.2                   1142.2                   1145.2                   1143.4                   563.80                   684.93                   1117.1                   1136.9                   1140.1                   1138.5                   564.19                   683.65                   1099.4                   1121.1                   1125.2                   1123.7                   563.87                   679.83                   1066.7                   1092.1                   1098.0                   1097.1                   564.00                   678.24                   1042.7                   1069.9                   1077.2                   1076.8                   564.33                   677.32                   1021.1                   1048.6                   1057.0                   1057.1                   564.64                   676.02                   997.80                   1024.3                   1033.9                   1034.7                   563.78                   673.74                   984.14                   1012.1                   1023.1                   1024.4                   552.12                   674.67                   1113.5                   1134.6                   1138.2                   1136.6                   529.98                   626.99                   908.65                   949.91                   969.92                   974.02
16.000                   2.2500                   1.5000                   6000.0                   4000.0                   40.000                   620.16                   733.93                   1109.8                   1124.8                   1126.8                   1125.0                   619.92                   732.30                   1106.3                   1121.7                   1123.9                   1122.2                   620.25                   731.13                   1097.4                   1113.7                   1116.4                   1114.7                   619.88                   727.57                   1081.1                   1099.3                   1102.8                   1101.4                   620.01                   726.20                   1070.8                   1090.0                   1094.0                   1092.8                   620.34                   725.40                   1062.3                   1082.2                   1086.6                   1085.5                   620.60                   724.11                   1051.2                   1072.2                   1077.2                   1076.4                   619.63                   721.01                   1035.1                   1058.0                   1064.4                   1064.1                   609.91                   727.35                   1120.7                   1135.1                   1136.9                   1134.9                   583.75                   672.80                   936.81                   969.44                   985.17                   988.20
16.000                   2.2500                   1.5000                   6000.0                   4000.0                   45.000                   666.01                   775.81                   1105.6                   1117.5                   1118.8                   1116.9                   665.82                   774.65                   1103.9                   1116.0                   1117.4                   1115.5                   666.10                   773.57                   1100.2                   1112.7                   1114.2                   1112.4                   665.77                   770.46                   1093.4                   1106.7                   1108.5                   1106.8                   665.91                   769.31                   1090.0                   1103.6                   1105.6                   1103.9                   666.25                   768.98                   1087.6                   1101.5                   1103.6                   1101.9                   666.47                   767.79                   1083.9                   1098.3                   1100.6                   1098.9                   665.44                   763.84                   1075.0                   1090.9                   1093.8                   1092.4                   657.81                   773.81                   1123.0                   1133.6                   1134.3                   1132.2                   629.57                   711.79                   968.88                   995.09                   1006.9                   1008.8
16.000                   2.2500                   1.5000                   6000.0                   4000.0                   50.000                   701.75                   818.03                   1109.1                   1118.3                   1118.9                   1116.8                   701.64                   817.49                   1108.3                   1117.7                   1118.3                   1116.2                   701.87                   816.98                   1107.1                   1116.6                   1117.2                   1115.1                   701.62                   814.80                   1104.5                   1114.3                   1115.0                   1113.0                   701.77                   814.33                   1103.8                   1113.6                   1114.4                   1112.4                   702.08                   814.57                   1103.7                   1113.5                   1114.3                   1112.3                   702.25                   813.99                   1102.8                   1112.8                   1113.6                   1111.6                   701.32                   809.79                   1098.5                   1109.3                   1110.4                   1108.4                   695.92                   819.68                   1125.7                   1133.8                   1133.8                   1131.5                   667.92                   746.37                   1012.8                   1035.7                   1043.5                   1043.8
16.000                   2.2500                   1.5000                   6000.0                   4000.0                   55.000                   727.77                   860.18                   1115.9                   1122.9                   1122.7                   1120.5                   727.59                   859.99                   1115.6                   1122.6                   1122.5                   1120.3                   727.79                   860.02                   1115.4                   1122.4                   1122.3                   1120.1                   727.63                   858.89                   1114.6                   1121.7                   1121.7                   1119.4                   727.79                   859.04                   1114.8                   1121.9                   1121.9                   1119.6                   728.11                   859.76                   1115.4                   1122.5                   1122.4                   1120.2                   728.30                   859.84                   1115.6                   1122.7                   1122.6                   1120.4                   727.47                   856.41                   1113.5                   1121.0                   1121.0                   1118.8                   723.53                   862.31                   1127.9                   1134.2                   1133.7                   1131.3                   699.16                   786.16                   1071.8                   1087.7                   1090.9                   1089.6
16.000                   2.2500                   1.5000                   6000.0                   4000.0                   60.000                   752.80                   900.89                   1123.9                   1129.1                   1128.3                   1125.9                   752.53                   900.90                   1123.9                   1129.0                   1128.3                   1125.9                   752.79                   901.26                   1124.1                   1129.2                   1128.4                   1126.1                   752.71                   900.90                   1124.1                   1129.2                   1128.5                   1126.1                   752.96                   901.43                   1124.6                   1129.8                   1129.0                   1126.6                   753.41                   902.42                   1125.5                   1130.6                   1129.8                   1127.4                   753.76                   902.96                   1126.1                   1131.2                   1130.4                   1128.0                   752.86                   900.54                   1125.2                   1130.4                   1129.7                   1127.3                   748.45                   901.35                   1131.7                   1136.5                   1135.6                   1133.1                   723.68                   834.47                   1112.3                   1122.0                   1122.6                   1120.5
16.000                   2.2500                   1.5000                   6000.0                   4000.0                   65.000                   795.49                   938.65                   1132.8                   1136.5                   1135.2                   1132.7                   795.33                   938.73                   1132.8                   1136.5                   1135.3                   1132.8                   795.70                   939.18                   1133.1                   1136.8                   1135.6                   1133.0                   795.76                   939.17                   1133.3                   1137.0                   1135.8                   1133.3                   796.15                   939.81                   1134.0                   1137.7                   1136.5                   1133.9                   796.78                   940.83                   1134.9                   1138.6                   1137.3                   1134.8                   797.30                   941.52                   1135.7                   1139.3                   1138.1                   1135.5                   796.30                   939.77                   1135.2                   1139.0                   1137.8                   1135.2                   788.83                   937.11                   1137.9                   1141.5                   1140.2                   1137.7                   758.75                   886.93                   1136.6                   1143.0                   1142.5                   1140.1
16.000                   2.2500                   1.5000                   6000.0                   4000.0                   70.000                   842.75                   975.71                   1141.7                   1144.1                   1142.5                   1139.8                   842.75                   975.83                   1141.8                   1144.2                   1142.5                   1139.9                   843.23                   976.31                   1142.2                   1144.5                   1142.9                   1140.2                   843.46                   976.55                   1142.6                   1145.0                   1143.3                   1140.6                   844.00                   977.24                   1143.3                   1145.7                   1144.0                   1141.3                   844.82                   978.24                   1144.2                   1146.6                   1144.9                   1142.2                   845.50                   979.02                   1145.1                   1147.4                   1145.7                   1143.1                   844.40                   977.82                   1144.9                   1147.4                   1145.7                   1143.0                   833.28                   972.16                   1144.7                   1147.2                   1145.6                   1142.9                   796.79                   940.15                   1157.5                   1161.4                   1160.0                   1157.3
16.000                   2.2500                   1.5000                   6000.0                   4000.0                   75.000                   890.75                   1009.5                   1151.5                   1152.9                   1150.8                   1148.1                   890.83                   1009.6                   1151.6                   1152.9                   1150.9                   1148.1                   891.34                   1010.1                   1152.0                   1153.3                   1151.3                   1148.5                   891.66                   1010.5                   1152.5                   1153.8                   1151.8                   1149.0                   892.25                   1011.1                   1153.2                   1154.6                   1152.5                   1149.7                   893.11                   1012.1                   1154.2                   1155.5                   1153.4                   1150.7                   893.84                   1012.9                   1155.1                   1156.4                   1154.3                   1151.6                   892.70                   1012.0                   1155.1                   1156.5                   1154.4                   1151.6                   880.01                   1004.9                   1153.2                   1154.7                   1152.7                   1149.9                   846.54                   988.77                   1176.6                   1178.7                   1176.7                   1173.9