% Model:              batchmodel_COIL_N_16_COIL_kr_1.5_COIL_kh_1_FUNZ_freq_6000_FUNZ_I_eff_1000.mph
% Version:            COMSOL 6.0.0.318
% Date:               Feb 8 2022, 20:44
% Table:              Tabella 1 - GRIGLIA_T
% COIL_N                 COIL_kr                  COIL_kh                  FUNZ_freq                FUNZ_I_eff               Time (s)                 Temperatura (degC), Point: (0, 0)Temperatura (degC), Point: (15, 0)Temperatura (degC), Point: (27.483, 0)Temperatura (degC), Point: (28.742, 0)Temperatura (degC), Point: (29.497, 0)Temperatura (degC), Point: (29.99, 0)Temperatura (degC), Point: (0, 62.5)Temperatura (degC), Point: (15, 62.5)Temperatura (degC), Point: (27.483, 62.5)Temperatura (degC), Point: (28.742, 62.5)Temperatura (degC), Point: (29.497, 62.5)Temperatura (degC), Point: (29.99, 62.5)Temperatura (degC), Point: (0, 125)Temperatura (degC), Point: (15, 125)Temperatura (degC), Point: (27.483, 125)Temperatura (degC), Point: (28.742, 125)Temperatura (degC), Point: (29.497, 125)Temperatura (degC), Point: (29.99, 125)Temperatura (degC), Point: (0, 187.5)Temperatura (degC), Point: (15, 187.5)Temperatura (degC), Point: (27.483, 187.5)Temperatura (degC), Point: (28.742, 187.5)Temperatura (degC), Point: (29.497, 187.5)Temperatura (degC), Point: (29.99, 187.5)Temperatura (degC), Point: (0, 250)Temperatura (degC), Point: (15, 250)Temperatura (degC), Point: (27.483, 250)Temperatura (degC), Point: (28.742, 250)Temperatura (degC), Point: (29.497, 250)Temperatura (degC), Point: (29.99, 250)Temperatura (degC), Point: (0, 312.5)Temperatura (degC), Point: (15, 312.5)Temperatura (degC), Point: (27.483, 312.5)Temperatura (degC), Point: (28.742, 312.5)Temperatura (degC), Point: (29.497, 312.5)Temperatura (degC), Point: (29.99, 312.5)Temperatura (degC), Point: (0, 375)Temperatura (degC), Point: (15, 375)Temperatura (degC), Point: (27.483, 375)Temperatura (degC), Point: (28.742, 375)Temperatura (degC), Point: (29.497, 375)Temperatura (degC), Point: (29.99, 375)Temperatura (degC), Point: (0, 437.5)Temperatura (degC), Point: (15, 437.5)Temperatura (degC), Point: (27.483, 437.5)Temperatura (degC), Point: (28.742, 437.5)Temperatura (degC), Point: (29.497, 437.5)Temperatura (degC), Point: (29.99, 437.5)Temperatura (degC), Point: (0, 468.75)Temperatura (degC), Point: (15, 468.75)Temperatura (degC), Point: (27.483, 468.75)Temperatura (degC), Point: (28.742, 468.75)Temperatura (degC), Point: (29.497, 468.75)Temperatura (degC), Point: (29.99, 468.75)Temperatura (degC), Point: (0, 492.19)Temperatura (degC), Point: (15, 492.19)Temperatura (degC), Point: (27.483, 492.19)Temperatura (degC), Point: (28.742, 492.19)Temperatura (degC), Point: (29.497, 492.19)Temperatura (degC), Point: (29.99, 492.19)
16.000                   1.5000                   1.0000                   6000.0                   1000.0                   0.0000                   20.000                   20.000                   20.000                   20.000                   20.002                   20.079                   20.000                   20.000                   20.000                   20.000                   20.002                   20.079                   20.000                   20.000                   20.000                   20.000                   20.002                   20.081                   20.000                   20.000                   20.000                   20.000                   20.002                   20.083                   20.000                   20.000                   20.000                   20.000                   20.002                   20.087                   20.000                   20.000                   20.000                   20.000                   20.003                   20.091                   20.000                   20.000                   20.000                   20.000                   20.003                   20.096                   20.000                   20.000                   20.000                   20.000                   20.004                   20.101                   20.000                   20.000                   20.000                   20.000                   20.002                   20.086                   20.000                   20.000                   20.000                   20.000                   20.004                   20.104
16.000                   1.5000                   1.0000                   6000.0                   1000.0                   5.0000                   21.511                   24.857                   42.799                   45.974                   47.981                   49.002                   21.515                   24.879                   42.965                   46.165                   48.188                   49.216                   21.533                   24.958                   43.439                   46.706                   48.774                   49.822                   21.563                   25.093                   44.234                   47.626                   49.773                   50.857                   21.601                   25.266                   45.280                   48.835                   51.090                   52.224                   21.649                   25.478                   46.574                   50.342                   52.739                   53.936                   21.694                   25.689                   47.976                   51.993                   54.554                   55.824                   21.739                   25.907                   49.417                   53.679                   56.404                   57.748                   21.571                   25.182                   44.969                   48.488                   50.721                   51.845                   21.975                   26.443                   50.087                   54.339                   57.072                   58.426
16.000                   1.5000                   1.0000                   6000.0                   1000.0                   10.000                   27.808                   35.760                   60.104                   63.508                   65.613                   66.661                   27.832                   35.831                   60.346                   63.776                   65.898                   66.952                   27.904                   36.028                   61.031                   64.539                   66.711                   67.788                   28.024                   36.357                   62.158                   65.795                   68.049                   69.162                   28.177                   36.780                   63.645                   67.460                   69.828                   70.992                   28.365                   37.294                   65.459                   69.495                   72.005                   73.230                   28.547                   37.813                   67.410                   71.698                   74.370                   75.667                   28.715                   38.314                   69.337                   73.884                   76.727                   78.100                   28.009                   36.445                   62.906                   66.676                   69.018                   70.170                   29.374                   39.370                   70.373                   74.866                   77.690                   79.059
16.000                   1.5000                   1.0000                   6000.0                   1000.0                   15.000                   38.562                   49.361                   76.301                   79.807                   81.970                   83.035                   38.609                   49.466                   76.577                   80.110                   82.290                   83.362                   38.741                   49.752                   77.372                   80.985                   83.215                   84.310                   38.957                   50.223                   78.663                   82.405                   84.719                   85.850                   39.235                   50.828                   80.373                   84.296                   86.724                   87.906                   39.572                   51.556                   82.429                   86.573                   89.144                   90.386                   39.900                   52.294                   84.625                   89.018                   91.750                   93.064                   40.179                   52.965                   86.743                   91.397                   94.300                   95.688                   38.825                   50.159                   79.190                   83.063                   85.462                   86.632                   41.224                   54.373                   87.897                   92.457                   95.316                   96.689
16.000                   1.5000                   1.0000                   6000.0                   1000.0                   20.000                   51.830                   64.145                   92.464                   96.070                   98.294                   99.379                   51.895                   64.271                   92.757                   96.391                   98.632                   99.724                   52.077                   64.614                   93.610                   97.323                   99.615                   100.73                   52.371                   65.174                   94.986                   98.830                   101.21                   102.36                   52.750                   65.896                   96.809                   100.83                   103.32                   104.53                   53.204                   66.756                   98.984                   103.23                   105.86                   107.13                   53.648                   67.627                   101.30                   105.79                   108.59                   109.92                   53.986                   68.368                   103.47                   108.22                   111.19                   112.59                   52.044                   64.870                   95.198                   99.166                   101.63                   102.81                   55.306                   69.967                   104.54                   109.16                   112.06                   113.44
16.000                   1.5000                   1.0000                   6000.0                   1000.0                   25.000                   66.618                   79.693                   108.93                   112.64                   114.93                   116.04                   66.694                   79.829                   109.23                   112.97                   115.28                   116.40                   66.908                   80.205                   110.11                   113.93                   116.29                   117.43                   67.252                   80.815                   111.53                   115.49                   117.93                   119.10                   67.695                   81.601                   113.41                   117.55                   120.11                   121.33                   68.221                   82.531                   115.65                   120.00                   122.71                   123.99                   68.733                   83.469                   118.02                   122.62                   125.49                   126.84                   69.065                   84.198                   120.16                   125.02                   128.06                   129.48                   66.666                   80.211                   111.38                   115.45                   117.98                   119.19                   70.476                   85.785                   120.93                   125.62                   128.56                   129.95
16.000                   1.5000                   1.0000                   6000.0                   1000.0                   30.000                   82.028                   95.560                   125.56                   129.39                   131.75                   132.88                   82.111                   95.702                   125.87                   129.72                   132.10                   133.24                   82.348                   96.099                   126.77                   130.70                   133.13                   134.29                   82.728                   96.741                   128.22                   132.28                   134.80                   136.00                   83.218                   97.569                   130.13                   134.38                   137.01                   138.26                   83.794                   98.542                   132.41                   136.88                   139.65                   140.96                   84.351                   99.519                   134.81                   139.53                   142.47                   143.84                   84.645                   100.20                   136.89                   141.87                   144.98                   146.42                   81.854                   95.814                   127.68                   131.87                   134.46                   135.69                   86.056                   101.68                   137.25                   142.01                   145.00                   146.40
16.000                   1.5000                   1.0000                   6000.0                   1000.0                   35.000                   97.608                   111.54                   142.29                   146.23                   148.67                   149.82                   97.698                   111.69                   142.60                   146.57                   149.02                   150.18                   97.954                   112.10                   143.52                   147.57                   150.07                   151.25                   98.365                   112.77                   144.99                   149.18                   151.76                   152.98                   98.893                   113.63                   146.94                   151.31                   154.01                   155.28                   99.511                   114.64                   149.25                   153.83                   156.68                   158.01                   100.10                   115.65                   151.67                   156.51                   159.53                   160.92                   100.35                   116.27                   153.68                   158.78                   161.97                   163.44                   97.190                   111.51                   144.07                   148.36                   151.02                   152.28                   101.71                   117.59                   153.59                   158.42                   161.46                   162.86
16.000                   1.5000                   1.0000                   6000.0                   1000.0                   40.000                   113.85                   127.95                   159.41                   163.47                   165.98                   167.16                   113.95                   128.10                   159.73                   163.81                   166.34                   167.52                   114.21                   128.52                   160.65                   164.82                   167.40                   168.60                   114.63                   129.19                   162.14                   166.44                   169.10                   170.34                   115.17                   130.06                   164.10                   168.58                   171.36                   172.65                   115.79                   131.07                   166.41                   171.12                   174.05                   175.40                   116.39                   132.07                   168.84                   173.80                   176.90                   178.31                   116.52                   132.58                   170.74                   175.96                   179.23                   180.72                   113.10                   127.55                   160.78                   165.19                   167.93                   169.20                   117.66                   133.56                   169.99                   174.90                   177.99                   179.40
16.000                   1.5000                   1.0000                   6000.0                   1000.0                   45.000                   130.10                   144.36                   176.53                   180.71                   183.29                   184.49                   130.19                   144.51                   176.85                   181.06                   183.66                   184.86                   130.46                   144.93                   177.78                   182.07                   184.72                   185.95                   130.89                   145.61                   179.28                   183.70                   186.44                   187.70                   131.44                   146.49                   181.25                   185.86                   188.71                   190.03                   132.07                   147.50                   183.57                   188.41                   191.41                   192.78                   132.67                   148.50                   186.00                   191.09                   194.27                   195.71                   132.70                   148.89                   187.79                   193.15                   196.49                   198.00                   129.01                   143.59                   177.50                   182.02                   184.83                   186.12                   133.61                   149.53                   186.39                   191.38                   194.52                   195.95
16.000                   1.5000                   1.0000                   6000.0                   1000.0                   50.000                   146.64                   161.13                   194.14                   198.45                   201.11                   202.33                   146.73                   161.28                   194.46                   198.79                   201.47                   202.70                   147.00                   161.71                   195.39                   199.81                   202.54                   203.80                   147.43                   162.39                   196.89                   201.45                   204.27                   205.56                   147.98                   163.26                   198.87                   203.61                   206.55                   207.89                   148.61                   164.27                   201.20                   206.17                   209.26                   210.66                   149.19                   165.25                   203.62                   208.86                   212.12                   213.58                   149.09                   165.50                   205.28                   210.77                   214.21                   215.74                   145.14                   159.92                   194.62                   199.27                   202.16                   203.47                   149.59                   165.63                   203.02                   208.11                   211.29                   212.73
16.000                   1.5000                   1.0000                   6000.0                   1000.0                   55.000                   163.28                   178.02                   211.89                   216.34                   219.08                   220.33                   163.37                   178.17                   212.21                   216.68                   219.45                   220.70                   163.64                   178.59                   213.15                   217.70                   220.52                   221.80                   164.07                   179.27                   214.66                   219.35                   222.26                   223.57                   164.61                   180.14                   216.64                   221.52                   224.55                   225.91                   165.24                   181.14                   218.97                   224.09                   227.27                   228.68                   165.80                   182.10                   221.39                   226.77                   230.12                   231.60                   165.55                   182.21                   222.90                   228.54                   232.07                   233.62                   161.34                   176.34                   211.87                   216.65                   219.62                   220.96                   165.59                   181.76                   219.73                   224.90                   228.15                   229.60
16.000                   1.5000                   1.0000                   6000.0                   1000.0                   60.000                   179.91                   194.91                   229.65                   234.22                   237.06                   238.33                   180.00                   195.05                   229.97                   234.57                   237.42                   238.70                   180.27                   195.48                   230.91                   235.60                   238.50                   239.80                   180.70                   196.15                   232.42                   237.25                   240.24                   241.58                   181.24                   197.02                   234.41                   239.43                   242.55                   243.93                   181.86                   198.02                   236.75                   242.00                   245.27                   246.71                   182.40                   198.96                   239.16                   244.68                   248.12                   249.62                   182.00                   198.91                   240.52                   246.31                   249.93                   251.50                   177.54                   192.76                   229.12                   234.03                   237.08                   238.45                   181.59                   197.89                   236.44                   241.70                   245.01                   246.47
16.000                   1.5000                   1.0000                   6000.0                   1000.0                   65.000                   196.55                   211.79                   247.40                   252.11                   255.03                   256.33                   196.64                   211.94                   247.72                   252.46                   255.40                   256.70                   196.91                   212.36                   248.67                   253.49                   256.48                   257.81                   197.33                   213.04                   250.18                   255.15                   258.23                   259.59                   197.87                   213.90                   252.18                   257.34                   260.54                   261.95                   198.48                   214.89                   254.52                   259.92                   263.27                   264.74                   199.00                   215.81                   256.92                   262.59                   266.12                   267.65                   198.46                   215.62                   258.15                   264.08                   267.79                   269.38                   193.74                   209.18                   246.37                   251.41                   254.55                   255.93                   197.59                   214.03                   253.14                   258.50                   261.86                   263.34
16.000                   1.5000                   1.0000                   6000.0                   1000.0                   70.000                   213.18                   228.68                   265.16                   270.00                   273.00                   274.32                   213.27                   228.82                   265.48                   270.35                   273.37                   274.70                   213.54                   229.24                   266.43                   271.39                   274.46                   275.81                   213.96                   229.92                   267.95                   273.05                   276.22                   277.60                   214.50                   230.78                   269.95                   275.25                   278.54                   279.97                   215.11                   231.77                   272.30                   277.83                   281.27                   282.76                   215.61                   232.67                   274.69                   280.50                   284.12                   285.67                   214.92                   232.32                   275.77                   281.85                   285.65                   287.27                   209.93                   225.60                   263.62                   268.79                   272.01                   273.42                   213.59                   230.16                   269.85                   275.30                   278.72                   280.20
16.000                   1.5000                   1.0000                   6000.0                   1000.0                   75.000                   229.93                   245.79                   283.32                   288.32                   291.41                   292.76                   230.02                   245.94                   283.64                   288.67                   291.79                   293.14                   230.29                   246.36                   284.59                   289.71                   292.88                   294.26                   230.71                   247.04                   286.13                   291.39                   294.65                   296.06                   231.25                   247.90                   288.14                   293.60                   296.98                   298.44                   231.84                   248.87                   290.49                   296.19                   299.73                   301.24                   232.32                   249.75                   292.88                   298.86                   302.58                   304.15                   231.46                   249.24                   293.80                   300.05                   303.95                   305.59                   226.17                   242.17                   281.19                   286.51                   289.83                   291.26                   229.53                   246.35                   286.75                   292.30                   295.79                   297.28