% Model:              batchmodel_COIL_N_16_COIL_kr_3_COIL_kh_1_FUNZ_freq_6000_FUNZ_I_eff_1000.mph
% Version:            COMSOL 6.0.0.318
% Date:               Feb 8 2022, 23:12
% Table:              Tabella 1 - GRIGLIA_T
% COIL_N                 COIL_kr                  COIL_kh                  FUNZ_freq                FUNZ_I_eff               Time (s)                 Temperatura (degC), Point: (0, 0)Temperatura (degC), Point: (15, 0)Temperatura (degC), Point: (27.483, 0)Temperatura (degC), Point: (28.742, 0)Temperatura (degC), Point: (29.497, 0)Temperatura (degC), Point: (29.99, 0)Temperatura (degC), Point: (0, 62.5)Temperatura (degC), Point: (15, 62.5)Temperatura (degC), Point: (27.483, 62.5)Temperatura (degC), Point: (28.742, 62.5)Temperatura (degC), Point: (29.497, 62.5)Temperatura (degC), Point: (29.99, 62.5)Temperatura (degC), Point: (0, 125)Temperatura (degC), Point: (15, 125)Temperatura (degC), Point: (27.483, 125)Temperatura (degC), Point: (28.742, 125)Temperatura (degC), Point: (29.497, 125)Temperatura (degC), Point: (29.99, 125)Temperatura (degC), Point: (0, 187.5)Temperatura (degC), Point: (15, 187.5)Temperatura (degC), Point: (27.483, 187.5)Temperatura (degC), Point: (28.742, 187.5)Temperatura (degC), Point: (29.497, 187.5)Temperatura (degC), Point: (29.99, 187.5)Temperatura (degC), Point: (0, 250)Temperatura (degC), Point: (15, 250)Temperatura (degC), Point: (27.483, 250)Temperatura (degC), Point: (28.742, 250)Temperatura (degC), Point: (29.497, 250)Temperatura (degC), Point: (29.99, 250)Temperatura (degC), Point: (0, 312.5)Temperatura (degC), Point: (15, 312.5)Temperatura (degC), Point: (27.483, 312.5)Temperatura (degC), Point: (28.742, 312.5)Temperatura (degC), Point: (29.497, 312.5)Temperatura (degC), Point: (29.99, 312.5)Temperatura (degC), Point: (0, 375)Temperatura (degC), Point: (15, 375)Temperatura (degC), Point: (27.483, 375)Temperatura (degC), Point: (28.742, 375)Temperatura (degC), Point: (29.497, 375)Temperatura (degC), Point: (29.99, 375)Temperatura (degC), Point: (0, 437.5)Temperatura (degC), Point: (15, 437.5)Temperatura (degC), Point: (27.483, 437.5)Temperatura (degC), Point: (28.742, 437.5)Temperatura (degC), Point: (29.497, 437.5)Temperatura (degC), Point: (29.99, 437.5)Temperatura (degC), Point: (0, 468.75)Temperatura (degC), Point: (15, 468.75)Temperatura (degC), Point: (27.483, 468.75)Temperatura (degC), Point: (28.742, 468.75)Temperatura (degC), Point: (29.497, 468.75)Temperatura (degC), Point: (29.99, 468.75)Temperatura (degC), Point: (0, 492.19)Temperatura (degC), Point: (15, 492.19)Temperatura (degC), Point: (27.483, 492.19)Temperatura (degC), Point: (28.742, 492.19)Temperatura (degC), Point: (29.497, 492.19)Temperatura (degC), Point: (29.99, 492.19)
16.000                   3.0000                   1.0000                   6000.0                   1000.0                   0.0000                   20.000                   20.000                   20.000                   20.000                   20.003                   20.090                   20.000                   20.000                   20.000                   20.000                   20.003                   20.090                   20.000                   20.000                   20.000                   20.000                   20.003                   20.090                   20.000                   20.000                   20.000                   20.000                   20.003                   20.090                   20.000                   20.000                   20.000                   20.000                   20.003                   20.090                   20.000                   20.000                   20.000                   20.000                   20.003                   20.090                   20.000                   20.000                   20.000                   20.000                   20.003                   20.090                   20.000                   20.000                   20.000                   20.000                   20.003                   20.089                   20.000                   20.000                   20.000                   20.000                   20.002                   20.084                   20.000                   20.000                   20.000                   20.000                   20.001                   20.065
16.000                   3.0000                   1.0000                   6000.0                   1000.0                   5.0000                   22.026                   27.395                   53.127                   57.426                   60.052                   61.349                   22.010                   27.342                   53.055                   57.360                   59.929                   61.152                   21.995                   27.286                   52.810                   57.072                   59.597                   60.830                   22.037                   27.464                   53.656                   57.974                   60.564                   61.805                   21.976                   27.225                   52.695                   56.955                   59.469                   60.702                   21.941                   27.084                   52.025                   56.231                   58.697                   59.900                   21.974                   27.229                   52.686                   56.962                   59.486                   60.731                   21.820                   26.678                   50.424                   54.420                   56.775                   57.932                   21.613                   25.882                   47.093                   50.718                   52.864                   53.901                   22.350                   26.821                   42.167                   44.594                   46.128                   46.937
16.000                   3.0000                   1.0000                   6000.0                   1000.0                   10.000                   30.990                   41.289                   70.601                   74.699                   76.898                   77.897                   30.996                   41.384                   71.597                   76.000                   78.442                   79.478                   30.881                   41.090                   70.311                   74.488                   76.710                   77.679                   31.098                   41.569                   71.850                   76.201                   78.687                   79.693                   30.831                   41.058                   70.940                   75.316                   77.674                   78.662                   30.721                   40.906                   71.211                   75.764                   78.279                   79.309                   30.828                   41.118                   71.531                   76.072                   78.420                   79.416                   30.249                   40.242                   70.535                   75.041                   77.492                   78.659                   29.156                   37.879                   64.195                   68.190                   70.431                   71.408                   30.114                   38.415                   58.507                   61.141                   62.656                   63.353
16.000                   3.0000                   1.0000                   6000.0                   1000.0                   15.000                   43.966                   56.703                   90.473                   95.290                   98.152                   99.540                   44.062                   56.923                   91.062                   95.977                   98.826                   100.17                   43.818                   56.520                   90.573                   95.560                   98.484                   99.871                   44.224                   57.132                   91.222                   96.038                   98.848                   100.26                   43.775                   56.525                   90.717                   95.690                   98.554                   99.888                   43.593                   56.247                   89.628                   94.350                   97.010                   98.233                   43.690                   56.364                   89.746                   94.588                   97.313                   98.637                   42.667                   55.033                   87.368                   91.869                   94.349                   95.508                   40.352                   51.155                   79.762                   83.936                   86.328                   87.481                   40.627                   50.440                   71.789                   74.523                   76.225                   77.062
16.000                   3.0000                   1.0000                   6000.0                   1000.0                   20.000                   60.011                   75.419                   116.41                   122.23                   125.23                   126.69                   60.219                   75.790                   117.74                   123.79                   126.96                   128.39                   59.846                   75.222                   116.60                   122.70                   125.70                   126.98                   60.356                   75.884                   117.62                   123.61                   126.95                   128.54                   59.774                   75.175                   116.47                   122.41                   125.29                   126.57                   59.368                   74.444                   114.44                   120.22                   123.03                   124.28                   59.291                   74.261                   113.73                   119.43                   122.24                   123.54                   57.511                   71.878                   109.43                   114.58                   117.11                   118.30                   53.796                   66.286                   99.636                   104.59                   107.09                   108.20                   53.964                   65.967                   90.863                   94.025                   95.940                   96.817
16.000                   3.0000                   1.0000                   6000.0                   1000.0                   25.000                   78.328                   95.407                   137.19                   142.63                   145.60                   146.99                   78.637                   95.854                   138.16                   143.69                   146.76                   148.15                   78.092                   95.051                   136.68                   142.21                   145.12                   146.41                   78.573                   95.609                   137.52                   143.05                   146.25                   147.73                   77.917                   94.905                   136.65                   142.13                   145.03                   146.36                   77.058                   93.502                   133.79                   139.14                   142.00                   143.30                   76.684                   92.953                   132.72                   138.02                   140.90                   142.22                   73.796                   89.219                   126.74                   131.58                   134.20                   135.44                   68.587                   81.920                   114.79                   119.26                   121.72                   122.84                   68.316                   80.809                   105.53                   108.45                   110.21                   111.03
16.000                   3.0000                   1.0000                   6000.0                   1000.0                   30.000                   97.005                   113.60                   149.66                   153.80                   156.24                   157.29                   97.393                   114.10                   150.35                   154.66                   157.25                   158.26                   96.678                   113.09                   148.18                   152.39                   155.25                   156.36                   97.096                   113.61                   149.29                   153.36                   155.69                   156.70                   96.361                   112.82                   148.42                   152.61                   155.23                   156.31                   95.098                   111.21                   147.33                   151.97                   155.01                   156.22                   94.409                   110.40                   146.61                   151.16                   153.92                   155.07                   90.339                   105.55                   140.33                   144.79                   147.51                   148.73                   83.699                   96.890                   127.12                   131.04                   133.49                   134.59                   82.206                   93.828                   116.88                   119.50                   121.03                   121.79
16.000                   3.0000                   1.0000                   6000.0                   1000.0                   35.000                   114.09                   129.53                   164.37                   168.93                   171.77                   173.09                   114.49                   130.00                   164.91                   169.47                   172.31                   173.62                   113.70                   129.01                   163.54                   168.07                   170.91                   172.23                   114.08                   129.50                   164.27                   168.82                   171.66                   172.98                   113.25                   128.60                   163.25                   167.78                   170.62                   171.93                   111.86                   127.06                   161.81                   166.37                   169.21                   170.53                   110.94                   126.08                   160.78                   165.34                   168.18                   169.49                   105.87                   120.36                   153.81                   158.22                   160.97                   162.25                   97.980                   110.58                   139.83                   143.72                   146.15                   147.31                   94.634                   105.13                   126.73                   129.32                   130.91                   131.70
16.000                   3.0000                   1.0000                   6000.0                   1000.0                   40.000                   130.17                   145.06                   179.80                   184.44                   187.33                   188.66                   130.54                   145.46                   180.25                   184.91                   187.83                   189.17                   129.77                   144.58                   179.22                   183.87                   186.78                   188.11                   130.10                   144.98                   179.68                   184.33                   187.23                   188.57                   129.21                   144.05                   178.72                   183.36                   186.26                   187.60                   127.79                   142.55                   177.18                   181.82                   184.72                   186.06                   126.69                   141.40                   175.96                   180.60                   183.50                   184.84                   120.68                   134.78                   168.03                   172.50                   175.29                   176.59                   111.56                   123.83                   152.94                   156.88                   159.35                   160.53                   106.45                   116.29                   137.24                   139.82                   141.42                   142.22
16.000                   3.0000                   1.0000                   6000.0                   1000.0                   45.000                   145.88                   160.66                   195.79                   200.54                   203.50                   204.85                   146.20                   161.00                   196.17                   200.95                   203.94                   205.30                   145.46                   160.19                   195.30                   200.07                   203.04                   204.40                   145.74                   160.52                   195.64                   200.41                   203.38                   204.73                   144.85                   159.61                   194.77                   199.52                   202.49                   203.85                   143.41                   158.11                   193.14                   197.89                   200.86                   202.21                   142.15                   156.81                   191.76                   196.51                   199.47                   200.83                   135.16                   149.21                   182.75                   187.31                   190.16                   191.47                   124.74                   136.94                   166.28                   170.28                   172.80                   173.99                   118.21                   127.79                   148.56                   151.16                   152.77                   153.57
16.000                   3.0000                   1.0000                   6000.0                   1000.0                   50.000                   161.55                   176.26                   211.82                   216.68                   219.71                   221.08                   161.83                   176.54                   212.14                   217.04                   220.10                   221.48                   161.12                   175.80                   211.42                   216.30                   219.34                   220.72                   161.36                   176.07                   211.65                   216.52                   219.56                   220.94                   160.46                   175.18                   210.86                   215.73                   218.77                   220.14                   159.00                   173.68                   209.14                   214.01                   217.05                   218.42                   157.58                   172.22                   207.61                   212.46                   215.49                   216.87                   149.62                   163.64                   197.52                   202.16                   205.07                   206.39                   137.90                   150.05                   179.63                   183.71                   186.27                   187.47                   129.96                   139.31                   159.94                   162.56                   164.19                   164.99
16.000                   3.0000                   1.0000                   6000.0                   1000.0                   55.000                   177.20                   191.92                   228.01                   232.99                   236.09                   237.48                   177.43                   192.14                   228.27                   233.28                   236.42                   237.82                   176.75                   191.46                   227.66                   232.66                   235.78                   237.18                   176.95                   191.67                   227.80                   232.80                   235.91                   237.30                   176.04                   190.79                   227.06                   232.06                   235.18                   236.57                   174.58                   189.29                   225.30                   230.28                   233.39                   234.78                   173.00                   187.69                   223.60                   228.57                   231.67                   233.07                   164.05                   178.09                   212.40                   217.14                   220.10                   221.44                   151.02                   163.17                   193.06                   197.21                   199.81                   201.02                   141.77                   150.95                   171.52                   174.16                   175.80                   176.60
16.000                   3.0000                   1.0000                   6000.0                   1000.0                   60.000                   192.72                   207.77                   244.81                   249.94                   253.13                   254.54                   192.90                   207.94                   245.01                   250.16                   253.39                   254.81                   192.27                   207.30                   244.42                   249.56                   252.76                   254.18                   192.42                   207.48                   244.56                   249.69                   252.89                   254.30                   191.50                   206.57                   243.74                   248.88                   252.08                   253.50                   190.05                   205.09                   242.05                   247.17                   250.37                   251.78                   188.34                   203.36                   240.20                   245.30                   248.49                   249.90                   178.32                   192.64                   227.73                   232.59                   235.62                   236.98                   163.98                   176.31                   206.76                   211.00                   213.65                   214.88                   153.80                   163.07                   183.87                   186.54                   188.20                   189.01
16.000                   3.0000                   1.0000                   6000.0                   1000.0                   65.000                   208.24                   223.62                   261.62                   266.88                   270.17                   271.60                   208.38                   223.74                   261.75                   267.04                   270.36                   271.79                   207.78                   223.15                   261.18                   266.46                   269.74                   271.18                   207.90                   223.28                   261.31                   266.59                   269.87                   271.31                   206.96                   222.36                   260.42                   265.70                   268.99                   270.42                   205.53                   220.90                   258.80                   264.06                   267.35                   268.78                   203.68                   219.02                   256.79                   262.03                   265.31                   266.74                   192.60                   207.18                   243.07                   248.04                   251.15                   252.52                   176.94                   189.46                   220.47                   224.79                   227.50                   228.73                   165.83                   175.19                   196.22                   198.92                   200.60                   201.41
16.000                   3.0000                   1.0000                   6000.0                   1000.0                   70.000                   223.76                   239.48                   278.42                   283.83                   287.20                   288.66                   223.85                   239.54                   278.49                   283.93                   287.32                   288.78                   223.29                   238.99                   277.94                   283.35                   286.72                   288.18                   223.38                   239.09                   278.06                   283.48                   286.86                   288.31                   222.42                   238.14                   277.10                   282.52                   285.90                   287.35                   221.00                   236.70                   275.54                   280.95                   284.33                   285.78                   219.02                   234.69                   273.39                   278.77                   282.13                   283.58                   206.87                   221.73                   258.40                   263.49                   266.67                   268.06                   189.90                   202.61                   234.18                   238.58                   241.34                   242.59                   177.86                   187.31                   208.57                   211.30                   212.99                   213.81
16.000                   3.0000                   1.0000                   6000.0                   1000.0                   75.000                   239.29                   255.33                   295.23                   300.78                   304.24                   305.72                   239.32                   255.34                   295.23                   300.81                   304.29                   305.77                   238.80                   254.83                   294.70                   300.25                   303.70                   305.18                   238.86                   254.90                   294.82                   300.37                   303.84                   305.31                   237.89                   253.92                   293.78                   299.34                   302.80                   304.28                   236.48                   252.50                   292.29                   297.84                   301.30                   302.78                   234.36                   250.35                   289.99                   295.50                   298.94                   300.42                   221.15                   236.28                   273.74                   278.94                   282.19                   283.60                   202.87                   215.76                   247.89                   252.38                   255.19                   256.45                   189.88                   199.43                   220.92                   223.68                   225.39                   226.21