% Model:              batchmodel_COIL_N_16_COIL_kr_1.5_COIL_kh_1_FUNZ_freq_10000_FUNZ_I_eff_2500.mph
% Version:            COMSOL 6.0.0.318
% Date:               Feb 8 2022, 21:02
% Table:              Tabella 1 - GRIGLIA_T
% COIL_N                 COIL_kr                  COIL_kh                  FUNZ_freq                FUNZ_I_eff               Time (s)                 Temperatura (degC), Point: (0, 0)Temperatura (degC), Point: (15, 0)Temperatura (degC), Point: (28.051, 0)Temperatura (degC), Point: (29.025, 0)Temperatura (degC), Point: (29.61, 0)Temperatura (degC), Point: (29.99, 0)Temperatura (degC), Point: (0, 62.5)Temperatura (degC), Point: (15, 62.5)Temperatura (degC), Point: (28.051, 62.5)Temperatura (degC), Point: (29.025, 62.5)Temperatura (degC), Point: (29.61, 62.5)Temperatura (degC), Point: (29.99, 62.5)Temperatura (degC), Point: (0, 125)Temperatura (degC), Point: (15, 125)Temperatura (degC), Point: (28.051, 125)Temperatura (degC), Point: (29.025, 125)Temperatura (degC), Point: (29.61, 125)Temperatura (degC), Point: (29.99, 125)Temperatura (degC), Point: (0, 187.5)Temperatura (degC), Point: (15, 187.5)Temperatura (degC), Point: (28.051, 187.5)Temperatura (degC), Point: (29.025, 187.5)Temperatura (degC), Point: (29.61, 187.5)Temperatura (degC), Point: (29.99, 187.5)Temperatura (degC), Point: (0, 250)Temperatura (degC), Point: (15, 250)Temperatura (degC), Point: (28.051, 250)Temperatura (degC), Point: (29.025, 250)Temperatura (degC), Point: (29.61, 250)Temperatura (degC), Point: (29.99, 250)Temperatura (degC), Point: (0, 312.5)Temperatura (degC), Point: (15, 312.5)Temperatura (degC), Point: (28.051, 312.5)Temperatura (degC), Point: (29.025, 312.5)Temperatura (degC), Point: (29.61, 312.5)Temperatura (degC), Point: (29.99, 312.5)Temperatura (degC), Point: (0, 375)Temperatura (degC), Point: (15, 375)Temperatura (degC), Point: (28.051, 375)Temperatura (degC), Point: (29.025, 375)Temperatura (degC), Point: (29.61, 375)Temperatura (degC), Point: (29.99, 375)Temperatura (degC), Point: (0, 437.5)Temperatura (degC), Point: (15, 437.5)Temperatura (degC), Point: (28.051, 437.5)Temperatura (degC), Point: (29.025, 437.5)Temperatura (degC), Point: (29.61, 437.5)Temperatura (degC), Point: (29.99, 437.5)Temperatura (degC), Point: (0, 468.75)Temperatura (degC), Point: (15, 468.75)Temperatura (degC), Point: (28.051, 468.75)Temperatura (degC), Point: (29.025, 468.75)Temperatura (degC), Point: (29.61, 468.75)Temperatura (degC), Point: (29.99, 468.75)Temperatura (degC), Point: (0, 492.19)Temperatura (degC), Point: (15, 492.19)Temperatura (degC), Point: (28.051, 492.19)Temperatura (degC), Point: (29.025, 492.19)Temperatura (degC), Point: (29.61, 492.19)Temperatura (degC), Point: (29.99, 492.19)
16.000                   1.5000                   1.0000                   10000                    2500.0                   0.0000                   20.000                   20.000                   20.000                   20.000                   20.048                   20.347                   20.000                   20.000                   20.000                   20.000                   20.049                   20.351                   20.000                   20.000                   20.000                   20.000                   20.051                   20.360                   20.000                   20.000                   20.000                   20.000                   20.056                   20.377                   20.000                   20.000                   20.000                   20.000                   20.063                   20.399                   20.000                   20.000                   20.000                   20.000                   20.074                   20.427                   20.000                   20.000                   20.000                   20.000                   20.086                   20.461                   20.000                   20.000                   20.000                   20.000                   20.100                   20.497                   20.000                   20.000                   20.000                   20.000                   20.063                   20.399                   20.000                   20.000                   20.000                   20.000                   20.138                   20.598
16.000                   1.5000                   1.0000                   10000                    2500.0                   5.0000                   25.590                   46.252                   168.44                   185.64                   196.31                   200.40                   25.632                   46.730                   171.37                   188.85                   199.80                   203.94                   25.730                   47.356                   175.99                   194.33                   205.53                   209.91                   25.893                   48.273                   182.89                   202.31                   214.43                   218.82                   26.089                   49.500                   190.20                   209.67                   221.47                   226.02                   26.346                   51.062                   201.44                   222.17                   234.24                   238.98                   26.640                   52.744                   210.61                   233.08                   247.42                   252.64                   26.905                   54.424                   225.70                   250.50                   265.36                   270.78                   26.130                   49.541                   190.72                   210.45                   222.57                   227.09                   31.923                   67.516                   268.99                   298.75                   316.59                   322.56
16.000                   1.5000                   1.0000                   10000                    2500.0                   10.000                   67.849                   121.35                   306.94                   329.71                   343.64                   348.47                   68.125                   122.22                   310.82                   334.17                   348.51                   353.42                   68.979                   124.89                   324.85                   350.46                   365.79                   370.81                   69.714                   126.68                   332.82                   359.37                   375.23                   380.39                   70.589                   128.93                   339.50                   365.80                   380.46                   385.76                   71.896                   132.56                   353.88                   381.00                   397.06                   402.66                   73.317                   136.20                   370.61                   401.42                   419.94                   425.77                   74.596                   139.79                   385.38                   417.71                   436.25                   442.54                   71.050                   129.23                   341.45                   368.25                   383.79                   388.81                   94.076                   169.32                   441.13                   477.34                   498.64                   504.98
16.000                   1.5000                   1.0000                   10000                    2500.0                   15.000                   135.94                   211.01                   452.99                   483.56                   501.62                   507.28                   136.25                   211.58                   452.04                   481.83                   499.50                   505.03                   138.31                   216.35                   468.79                   500.23                   518.61                   524.16                   139.62                   219.05                   481.16                   514.82                   534.46                   540.30                   140.67                   221.09                   487.80                   521.04                   540.01                   546.16                   142.72                   225.45                   504.44                   540.55                   561.37                   567.69                   145.27                   230.87                   526.38                   565.90                   588.55                   595.12                   147.10                   234.84                   540.81                   581.52                   603.69                   610.41                   141.74                   221.65                   489.72                   524.10                   543.83                   549.59                   177.48                   274.00                   595.12                   637.96                   662.46                   669.38
16.000                   1.5000                   1.0000                   10000                    2500.0                   20.000                   217.95                   306.34                   592.78                   629.81                   651.82                   658.14                   217.99                   306.11                   588.39                   623.87                   644.47                   650.57                   221.05                   311.88                   605.83                   643.53                   665.03                   671.08                   222.82                   315.13                   616.27                   654.97                   677.35                   683.74                   223.80                   317.44                   630.76                   671.03                   693.75                   700.58                   226.05                   321.80                   645.75                   689.30                   713.83                   720.81                   229.23                   327.65                   661.78                   706.31                   730.90                   738.15                   230.93                   331.14                   676.69                   723.50                   748.90                   756.24                   225.16                   317.56                   625.09                   665.44                   688.11                   694.50                   266.30                   374.15                   722.83                   772.11                   800.84                   808.47
16.000                   1.5000                   1.0000                   10000                    2500.0                   25.000                   301.49                   396.46                   695.27                   733.53                   756.10                   762.28                   301.22                   395.72                   692.26                   729.62                   751.26                   757.40                   304.66                   401.09                   702.82                   740.89                   762.24                   768.11                   306.73                   404.48                   709.61                   746.61                   767.64                   773.71                   307.88                   407.83                   729.80                   770.58                   794.24                   801.11                   310.10                   411.99                   743.13                   786.61                   811.09                   817.95                   313.49                   417.73                   758.55                   804.51                   829.22                   836.19                   314.72                   420.72                   779.45                   832.63                   860.57                   867.81                   309.18                   407.41                   724.28                   765.53                   788.25                   794.46                   351.57                   463.86                   834.83                   891.19                   920.83                   928.06
16.000                   1.5000                   1.0000                   10000                    2500.0                   30.000                   379.69                   474.29                   755.54                   792.20                   812.68                   818.02                   379.19                   473.24                   751.14                   786.88                   806.98                   812.25                   382.50                   477.80                   760.65                   797.71                   818.26                   823.60                   384.73                   481.27                   769.63                   808.06                   829.18                   834.59                   386.38                   485.58                   787.37                   827.71                   849.28                   854.71                   388.60                   489.89                   802.82                   844.88                   867.01                   872.50                   392.02                   495.70                   819.75                   862.89                   885.26                   890.73                   392.95                   499.18                   842.14                   886.63                   909.28                   914.67                   387.43                   485.35                   788.16                   829.44                   851.48                   857.01                   427.00                   538.81                   941.75                   987.99                   1007.5                   1011.3
16.000                   1.5000                   1.0000                   10000                    2500.0                   35.000                   448.76                   539.82                   806.66                   841.87                   860.73                   865.45                   448.17                   538.58                   800.51                   834.98                   853.54                   858.22                   451.22                   542.62                   810.17                   845.33                   864.13                   868.82                   453.61                   546.29                   820.09                   855.97                   875.04                   879.75                   455.87                   551.24                   834.61                   870.67                   889.66                   894.29                   458.32                   556.07                   849.96                   886.50                   905.55                   910.11                   461.87                   562.42                   868.27                   904.86                   923.60                   928.00                   462.95                   567.08                   892.26                   927.49                   945.04                   949.04                   456.75                   551.44                   833.07                   868.12                   886.55                   891.05                   494.15                   604.93                   1029.2                   1060.6                   1069.9                   1070.4
16.000                   1.5000                   1.0000                   10000                    2500.0                   40.000                   508.79                   594.33                   851.11                   883.43                   900.52                   904.64                   508.18                   593.04                   844.43                   876.22                   893.12                   897.23                   511.05                   596.78                   853.20                   885.29                   902.25                   906.33                   513.67                   600.67                   862.89                   895.24                   912.21                   916.25                   516.53                   606.04                   875.07                   906.94                   923.49                   927.37                   519.39                   611.49                   890.27                   921.63                   937.71                   941.42                   523.22                   618.50                   910.76                   941.01                   956.23                   959.63                   524.75                   624.41                   940.79                   969.03                   982.46                   985.30                   517.34                   606.52                   871.52                   902.06                   917.97                   921.72                   554.25                   662.42                   1084.5                   1105.0                   1109.7                   1108.9
16.000                   1.5000                   1.0000                   10000                    2500.0                   45.000                   560.18                   639.03                   885.24                   913.91                   928.86                   932.33                   559.60                   637.79                   879.13                   907.50                   922.39                   925.88                   562.34                   641.38                   886.71                   915.01                   929.77                   933.19                   565.16                   645.53                   895.83                   923.89                   938.43                   941.76                   568.44                   651.28                   907.36                   934.39                   948.28                   951.42                   571.68                   657.36                   923.78                   949.61                   962.68                   965.56                   575.75                   665.07                   948.96                   973.33                   985.13                   987.55                   577.77                   671.93                   987.58                   1011.6                   1021.5                   1023.1                   569.19                   651.80                   904.31                   930.47                   943.94                   946.99                   606.22                   712.43                   1118.6                   1131.5                   1133.4                   1132.1
16.000                   1.5000                   1.0000                   10000                    2500.0                   50.000                   604.36                   676.61                   911.13                   935.88                   948.73                   951.62                   603.84                   675.51                   906.38                   931.05                   943.89                   946.80                   606.44                   679.02                   912.96                   937.24                   949.84                   952.67                   609.37                   683.41                   921.76                   945.40                   957.60                   960.30                   612.90                   689.53                   934.06                   956.37                   967.73                   970.16                   616.43                   696.17                   953.50                   974.32                   984.54                   986.61                   620.65                   704.52                   986.31                   1006.8                   1015.6                   1017.0                   623.08                   712.05                   1032.2                   1053.3                   1060.1                   1060.3                   613.58                   689.99                   932.04                   953.82                   964.91                   967.29                   651.14                   758.11                   1140.9                   1149.3                   1149.9                   1148.2
16.000                   1.5000                   1.0000                   10000                    2500.0                   55.000                   640.84                   706.77                   928.95                   949.96                   960.85                   963.21                   640.39                   705.95                   925.86                   946.84                   957.74                   960.11                   642.87                   709.43                   932.11                   952.55                   963.11                   965.38                   645.85                   714.09                   941.63                   961.21                   971.20                   973.29                   649.48                   720.71                   956.87                   975.07                   984.07                   985.83                   653.16                   728.06                   982.13                   999.75                   1007.6                   1008.8                   657.44                   737.45                   1021.8                   1040.2                   1046.6                   1047.0                   660.12                   746.21                   1063.5                   1080.4                   1084.9                   1084.3                   650.11                   721.12                   955.61                   973.56                   982.43                   984.18                   687.84                   807.33                   1156.1                   1162.1                   1161.9                   1160.0
16.000                   1.5000                   1.0000                   10000                    2500.0                   60.000                   671.96                   732.71                   942.94                   960.52                   969.59                   971.45                   671.59                   732.15                   941.38                   958.95                   968.02                   969.89                   673.93                   735.99                   948.06                   965.00                   973.66                   975.39                   676.88                   741.43                   959.40                   975.40                   983.37                   984.87                   680.48                   749.36                   979.21                   994.31                   1001.3                   1002.4                   684.13                   758.41                   1010.3                   1025.8                   1031.8                   1032.2                   688.24                   769.81                   1050.6                   1066.1                   1070.5                   1070.1                   690.96                   780.33                   1084.2                   1097.3                   1100.1                   1099.1                   681.09                   749.89                   978.39                   993.41                   1000.3                   1001.4                   717.03                   856.97                   1168.6                   1172.9                   1172.2                   1170.2
16.000                   1.5000                   1.0000                   10000                    2500.0                   65.000                   697.88                   757.09                   954.68                   969.18                   976.57                   977.97                   697.61                   756.74                   954.50                   968.98                   976.35                   977.75                   699.76                   761.39                   962.26                   976.10                   983.01                   984.25                   702.53                   768.17                   976.36                   989.43                   995.61                   996.56                   705.90                   777.99                   1001.2                   1014.2                   1019.5                   1020.0                   709.36                   789.16                   1035.5                   1049.2                   1053.5                   1053.2                   713.23                   802.58                   1071.9                   1084.3                   1087.1                   1086.2                   715.92                   814.47                   1097.6                   1107.6                   1109.2                   1107.8                   706.57                   778.92                   1000.6                   1013.5                   1018.7                   1019.2                   744.09                   904.41                   1179.5                   1182.6                   1181.5                   1179.4
16.000                   1.5000                   1.0000                   10000                    2500.0                   70.000                   719.20                   782.31                   965.60                   977.44                   983.35                   984.31                   718.99                   782.14                   966.57                   978.40                   984.27                   985.22                   721.11                   787.78                   975.93                   987.24                   992.65                   993.41                   723.94                   796.07                   993.10                   1004.0                   1008.8                   1009.2                   727.42                   807.68                   1021.4                   1033.0                   1037.0                   1036.9                   731.09                   820.55                   1055.2                   1066.8                   1069.8                   1069.1                   735.33                   835.26                   1085.8                   1095.4                   1097.1                   1095.8                   738.38                   847.67                   1105.8                   1113.5                   1114.3                   1112.8                   728.77                   809.58                   1021.1                   1032.4                   1036.3                   1036.2                   777.39                   947.23                   1189.5                   1191.7                   1190.3                   1188.0
16.000                   1.5000                   1.0000                   10000                    2500.0                   75.000                   736.93                   810.36                   976.91                   986.64                   991.30                   991.86                   736.75                   810.41                   978.75                   988.52                   993.15                   993.69                   739.40                   816.72                   990.04                   999.63                   1003.9                   1004.2                   743.16                   825.91                   1009.6                   1019.3                   1023.1                   1023.1                   748.04                   838.17                   1037.5                   1047.6                   1050.7                   1050.2                   753.37                   851.47                   1067.0                   1076.6                   1078.7                   1077.7                   759.58                   866.17                   1092.9                   1100.6                   1101.6                   1100.2                   764.02                   878.21                   1110.3                   1116.5                   1116.8                   1115.2                   751.59                   842.01                   1038.2                   1047.9                   1050.8                   1050.3                   826.97                   983.55                   1198.8                   1200.4                   1198.7                   1196.4