% Model:              batchmodel_BILLETTA_r_0.0131664_COIL_kr_1.4848_COIL_kw_3.2356_FUNZ_freq_4639.7_FUNZ_I_eff_162.3068.mph
% Version:            COMSOL 5.6.0.401
% Date:               Jan 27 2022, 11:56
% Table:              Tabella delle sonde 1 - 
% Tempo (s)                                       Temperatura (degC), Punto: (0, 0.5)               Temperatura (degC), Punto: (0.5*BILLETTA_r, 0.5)  Temperatura (degC), Punto: (BILLETTA_r-10*FUNZ_depth_billetta, 0.5)Temperatura (degC), Punto: (BILLETTA_r-5*FUNZ_depth_billetta, 0.5)Temperatura (degC), Punto: (BILLETTA_r-2*FUNZ_depth_billetta, 0.5)Temperatura (degC), Punto: (BILLETTA_r-FUNZ_depth_billetta, 0.5)Temperatura (degC), Punto: (BILLETTA_r-0.01[mm], 0.5)
0                                                 20                                                19.999999999999943                                20.00000001755882                                 20.05624445331432                                 20.578211771212864                                20.89785525835623                                 21.190198340120673
5                                                 596.1383364323134                                 889.5942276882482                                 1278.1433977489792                                1326.177879639631                                 1334.6421808751893                                1334.3049737471965                                1332.5067932404918
8.617126830125276                                 1157.1692746818953                                1303.1273258799542                                1384.3657592602685                                1395.5819465863442                                1395.522422438769                                 1394.0127825490435                                1391.6830652000513
