% Model:              batchmodel_BILLETTA_r_0.0131664_COIL_kr_1.4848_COIL_kw_3.2356_FUNZ_freq_2540.9_FUNZ_I_eff_127.5152.mph
% Version:            COMSOL 5.6.0.401
% Date:               Jan 27 2022, 11:55
% Table:              Tabella delle sonde 1 - 
% Tempo (s)                                       Temperatura (degC), Punto: (0, 0.5)               Temperatura (degC), Punto: (0.5*BILLETTA_r, 0.5)  Temperatura (degC), Punto: (BILLETTA_r-10*FUNZ_depth_billetta, 0.5)Temperatura (degC), Punto: (BILLETTA_r-5*FUNZ_depth_billetta, 0.5)Temperatura (degC), Punto: (BILLETTA_r-2*FUNZ_depth_billetta, 0.5)Temperatura (degC), Punto: (BILLETTA_r-FUNZ_depth_billetta, 0.5)Temperatura (degC), Punto: (BILLETTA_r-0.01[mm], 0.5)
0                                                 20                                                20                                                20.000000000792625                                20.008654951915048                                20.213785703962685                                20.355097083262535                                20.496494592824945
5                                                 405.69107208860635                                543.2645751514112                                 711.0480987328086                                 898.5842495710771                                 988.6434067467966                                 1002.9434665143239                                1006.8785166724871
10                                                774.6930736692922                                 1043.1598597328402                                1160.7104602722147                                1195.7195599928682                                1200.1885247730343                                1199.1505343705871                                1196.9727998637873
15                                                1167.878114000318                                 1209.1589813815476                                1229.2238194616007                                1234.5791396528693                                1232.1222063520527                                1230.123452711553                                 1227.538760690968
20                                                1250.2061981020297                                1268.7193682096295                                1277.6854868614605                                1277.921501176325                                 1273.6669729228042                                1271.2843672537729                                1268.4295732976325
25                                                1303.8104674760375                                1316.6390947031123                                1321.8801883098408                                1319.9011064359197                                1314.6250704662411                                1311.962802388945                                 1308.8670950377227
30                                                1347.828538072948                                 1357.826677956862                                 1360.9611525820715                                1357.594440319639                                 1351.5827656978472                                1348.6923820752759                                1345.3828311428874
35                                                1374.8933885221995                                1383.3418673678675                                1385.6989898869292                                1382.0098473539038                                1375.7755063786062                                1372.7765671249695                                1369.3356219578995
35.356737147981704                                1376.8243960341629                                1385.1623105480062                                1387.4639709924031                                1383.7518238883472                                1377.5015962410694                                1374.4949118221875                                1371.0445920142097
