% Model:              batchmodel_BILLETTA_r_0.0131664_COIL_kr_1.4848_COIL_kw_3.2356_FUNZ_freq_4639.7_FUNZ_I_eff_127.5152.mph
% Version:            COMSOL 5.6.0.401
% Date:               Jan 27 2022, 11:55
% Table:              Tabella delle sonde 1 - 
% Tempo (s)                                       Temperatura (degC), Punto: (0, 0.5)               Temperatura (degC), Punto: (0.5*BILLETTA_r, 0.5)  Temperatura (degC), Punto: (BILLETTA_r-10*FUNZ_depth_billetta, 0.5)Temperatura (degC), Punto: (BILLETTA_r-5*FUNZ_depth_billetta, 0.5)Temperatura (degC), Punto: (BILLETTA_r-2*FUNZ_depth_billetta, 0.5)Temperatura (degC), Punto: (BILLETTA_r-FUNZ_depth_billetta, 0.5)Temperatura (degC), Punto: (BILLETTA_r-0.01[mm], 0.5)
0                                                 20                                                19.999999999999943                                20.000000002087575                                20.016645682988383                                20.393977616468817                                20.655317534624032                                20.898615920159955
5                                                 490.62242271780804                                664.7538697957563                                 1086.673135447411                                 1191.4597838176537                                1213.793859652325                                 1215.5460517078645                                1214.7293078421708
10                                                959.2461871004233                                 1174.942713864039                                 1252.9159118164548                                1263.1722335563022                                1262.897266657787                                 1261.5716724821737                                1259.6505170463033
15                                                1298.1214493414827                                1345.3754126174458                                1377.070675911355                                 1380.9003903681764                                1378.711523344784                                 1376.8941500520586                                1374.498210012066
16.940529095864598                                1359.9137014463286                                1389.560252725963                                 1397.6572453059193                                1398.3462900022178                                1396.037730915515                                 1394.2564331685185                                1391.8241979183026
