% Model:              batchmodel_BILLETTA_r_0.0131664_COIL_kr_1.4848_COIL_kw_3.2356_FUNZ_freq_8940.8_FUNZ_I_eff_127.5152.mph
% Version:            COMSOL 5.6.0.401
% Date:               Jan 27 2022, 11:59
% Table:              Tabella delle sonde 1 - 
% Tempo (s)                                       Temperatura (degC), Punto: (0, 0.5)               Temperatura (degC), Punto: (0.5*BILLETTA_r, 0.5)  Temperatura (degC), Punto: (BILLETTA_r-10*FUNZ_depth_billetta, 0.5)Temperatura (degC), Punto: (BILLETTA_r-5*FUNZ_depth_billetta, 0.5)Temperatura (degC), Punto: (BILLETTA_r-2*FUNZ_depth_billetta, 0.5)Temperatura (degC), Punto: (BILLETTA_r-FUNZ_depth_billetta, 0.5)Temperatura (degC), Punto: (BILLETTA_r-0.01[mm], 0.5)
0                                                 20                                                20                                                20.000000014264742                                20.035716039795943                                20.77302885729239                                 21.28474842640088                                 21.709407646941372
5                                                 569.16287587921                                   775.7592925860498                                 1239.3596940764164                                1270.5232754743292                                1276.3341649089498                                1276.1799925231971                                1275.0533588170542
9.760747212445693                                 1092.5058440530029                                1259.9780788518574                                1377.4595599567183                                1386.3867049294022                                1386.5208138578705                                1385.449651377678                                 1383.8168176386594
