% Model:              batchmodel_BILLETTA_r_0.0131664_COIL_kr_1.4848_COIL_kw_3.2356_FUNZ_freq_2540.9_FUNZ_I_eff_174.7421.mph
% Version:            COMSOL 5.6.0.401
% Date:               Jan 27 2022, 11:55
% Table:              Tabella delle sonde 1 - 
% Tempo (s)                                       Temperatura (degC), Punto: (0, 0.5)               Temperatura (degC), Punto: (0.5*BILLETTA_r, 0.5)  Temperatura (degC), Punto: (BILLETTA_r-10*FUNZ_depth_billetta, 0.5)Temperatura (degC), Punto: (BILLETTA_r-5*FUNZ_depth_billetta, 0.5)Temperatura (degC), Punto: (BILLETTA_r-2*FUNZ_depth_billetta, 0.5)Temperatura (degC), Punto: (BILLETTA_r-FUNZ_depth_billetta, 0.5)Temperatura (degC), Punto: (BILLETTA_r-0.01[mm], 0.5)
0                                                 20                                                20                                                20.000000013800104                                20.042821801297748                                20.347023494757195                                20.52364053581408                                 20.699202488954256
5                                                 554.0607566903483                                 787.6194785929544                                 1124.3741747522072                                1246.1122106790153                                1270.042375391372                                 1271.3298814547775                                1269.6496212746779
10                                                1228.6776868095644                                1301.6798743702839                                1340.3779004568496                                1354.0917889801217                                1353.4300629049694                                1351.344803024564                                 1348.2978182463735
13.604622860154182                                1346.0084537778876                                1381.5289681213912                                1397.1637662024                                   1400.9313793638348                                1397.5534239837903                                1394.9923112401816                                1391.6240989266703
