% Model:              batchmodel_BILLETTA_r_0.0131664_COIL_kr_1.4848_COIL_kw_3.2356_FUNZ_freq_6066_FUNZ_I_eff_61.5962.mph
% Version:            COMSOL 5.6.0.401
% Date:               Jan 27 2022, 11:56
% Table:              Tabella delle sonde 1 - 
% Tempo (s)                                       Temperatura (degC), Punto: (0, 0.5)               Temperatura (degC), Punto: (0.5*BILLETTA_r, 0.5)  Temperatura (degC), Punto: (BILLETTA_r-10*FUNZ_depth_billetta, 0.5)Temperatura (degC), Punto: (BILLETTA_r-5*FUNZ_depth_billetta, 0.5)Temperatura (degC), Punto: (BILLETTA_r-2*FUNZ_depth_billetta, 0.5)Temperatura (degC), Punto: (BILLETTA_r-FUNZ_depth_billetta, 0.5)Temperatura (degC), Punto: (BILLETTA_r-0.01[mm], 0.5)
0                                                 20                                                19.999999999999886                                20.000000000010516                                20.000037788011753                                20.10265472091669                                 20.31109401845532                                 20.49936734818482
5                                                 239.12868261088943                                307.9858425643706                                 438.65299758669676                                499.30778795130266                                534.595555913223                                  541.9611678701629                                 544.7155792880648
10                                                530.6904471379011                                 616.7760995665287                                 807.0878734599711                                 918.7359831826585                                 969.6497481037931                                 978.2716669217153                                 980.7484259352417
15                                                721.0269590042781                                 835.4871848504037                                 1042.7705578818423                                1082.9792415748848                                1092.5756963730328                                1093.1705495865317                                1092.4568049354834
20                                                914.0036318138112                                 1014.0918139142242                                1102.3254794374743                                1113.2606276105953                                1114.3517546236376                                1113.676079750047                                 1112.4922594505256
25                                                1079.7863669828762                                1117.162383794834                                 1142.6411199089343                                1143.815241814309                                 1141.9040723494118                                1140.7312909882185                                1139.3213756510822
30                                                1162.0553729244516                                1176.392454718704                                 1184.083273517504                                 1181.9925335243138                                1178.870184841816                                 1177.440703353809                                 1175.861717363061
35                                                1206.7266949851469                                1216.7487137585235                                1220.7389134401592                                1217.6537657018412                                1214.0235808219368                                1212.4469114362082                                1210.7395009653915
40                                                1240.594750729706                                 1249.7435772478198                                1252.150520190964                                 1248.4910122811984                                1244.522665592876                                 1242.837361398851                                 1241.0286038019717
45                                                1271.0170645127723                                1279.0712221743743                                1279.890289235601                                 1275.6994780452915                                1271.4241614107536                                1269.640614484656                                 1267.7401579233701
50                                                1298.2029879851766                                1305.1096212647722                                1304.436938451939                                 1299.763601106069                                 1295.2101482273201                                1293.3372041841017                                1291.3529213008792
55                                                1322.3811735385789                                1328.1500280536966                                1326.1105318340788                                1321.002285744683                                 1316.1970068666592                                1314.2426092763071                                1312.1815799925557
60                                                1343.3816165362368                                1348.242594666066                                 1345.1256955262152                                1339.6642520638175                                1334.6457879934815                                1332.6205240508089                                1330.4917157495543
65                                                1361.222066562405                                 1365.3482103362248                                1361.4025355224826                                1355.6618255634767                                1350.4662018765944                                1348.3801321744663                                1346.1921503037856
68.98234042621607                                 1373.1707100591566                                1376.8353785402514                                1372.407481951222                                 1366.4972363796974                                1361.1862839404516                                1359.058981888028                                 1356.8300266222773
