% Model:              batchmodel_BILLETTA_r_0.0131664_COIL_kr_1.4848_COIL_kw_3.2356_FUNZ_freq_2540.9_FUNZ_I_eff_162.3068.mph
% Version:            COMSOL 5.6.0.401
% Date:               Jan 27 2022, 11:55
% Table:              Tabella delle sonde 1 - 
% Tempo (s)                                       Temperatura (degC), Punto: (0, 0.5)               Temperatura (degC), Punto: (0.5*BILLETTA_r, 0.5)  Temperatura (degC), Punto: (BILLETTA_r-10*FUNZ_depth_billetta, 0.5)Temperatura (degC), Punto: (BILLETTA_r-5*FUNZ_depth_billetta, 0.5)Temperatura (degC), Punto: (BILLETTA_r-2*FUNZ_depth_billetta, 0.5)Temperatura (degC), Punto: (BILLETTA_r-FUNZ_depth_billetta, 0.5)Temperatura (degC), Punto: (BILLETTA_r-0.01[mm], 0.5)
0                                                 20                                                20                                                20.000000006599294                                20.031733393833804                                20.310649028604985                                20.47877240519432                                 20.64577747131068
5                                                 518.6991995598136                                 714.0114917807315                                 1031.3706280641331                                1193.8398868858399                                1227.877080001811                                 1230.58303815602                                  1229.4979528098802
10                                                1158.3857715517875                                1257.654196695099                                 1298.569363332946                                 1312.1343925304805                                1311.5425387624205                                1309.5867444505748                                1306.7388485485662
14.743228577741593                                1324.195224226246                                 1359.6439066847438                                1375.927956178732                                 1379.3048104563713                                1375.535981356973                                 1372.9390668136984                                1369.6384309796094
