% Model:              batchmodel_BILLETTA_r_0.0131664_COIL_kr_1.4848_COIL_kw_3.2356_FUNZ_freq_4639.7_FUNZ_I_eff_85.0125.mph
% Version:            COMSOL 5.6.0.401
% Date:               Jan 27 2022, 11:55
% Table:              Tabella delle sonde 1 - 
% Tempo (s)                                       Temperatura (degC), Punto: (0, 0.5)               Temperatura (degC), Punto: (0.5*BILLETTA_r, 0.5)  Temperatura (degC), Punto: (BILLETTA_r-10*FUNZ_depth_billetta, 0.5)Temperatura (degC), Punto: (BILLETTA_r-5*FUNZ_depth_billetta, 0.5)Temperatura (degC), Punto: (BILLETTA_r-2*FUNZ_depth_billetta, 0.5)Temperatura (degC), Punto: (BILLETTA_r-FUNZ_depth_billetta, 0.5)Temperatura (degC), Punto: (BILLETTA_r-0.01[mm], 0.5)
0                                                 20                                                19.999999999999943                                20.000000000103                                   20.00056275870645                                 20.197717305163337                                20.3884729409545                                  20.575260288795164
5                                                 324.1389624181926                                 429.1801271487336                                 618.6725749333274                                 733.3164396393871                                 791.2700452223102                                 802.0028579641101                                 805.5899792305987
10                                                660.1362479953764                                 782.9207758398483                                 1048.532465743801                                 1112.4430908837285                                1126.4205866267098                                1127.3055752287837                                1126.4433394738899
15                                                905.9384286693686                                 1055.5708944971511                                1137.9444288248014                                1148.4772192678006                                1148.6735634439765                                1147.6492244428264                                1146.115258364965
20                                                1132.3252875754024                                1172.4971357763034                                1197.1705988543013                                1198.8691422768534                                1196.461217394412                                 1194.9623820742963                                1193.1473006196252
25                                                1217.2210039303422                                1239.2548814484712                                1253.001351698409                                 1252.1462162061794                                1248.6802214845957                                1246.9111318467521                                1244.876183184364
30                                                1276.7741903568685                                1293.31716958554                                  1302.2472748875375                                1299.879689652707                                 1295.6645334386699                                1293.6772370433837                                1291.4482411385711
35                                                1327.808454809829                                 1341.381057555248                                 1347.148004960658                                 1343.621910636748                                 1338.774901519902                                 1336.5913106510734                                1334.1808503809134
40                                                1361.7050925927097                                1372.5367844538036                                1376.2609744377633                                1372.2375800976847                                1367.092434133201                                 1364.796511853614                                 1362.2679337711688
41.55390403564004                                 1372.078464204485                                 1382.0604899983027                                1385.1603592756665                                1380.9886274242467                                1375.753962385012                                 1373.423918711559                                 1370.8592271866664
