% Model:              batchmodel_BILLETTA_r_0.0131664_COIL_kr_1.4848_COIL_kw_3.2356_FUNZ_freq_7167.5_FUNZ_I_eff_127.5152.mph
% Version:            COMSOL 5.6.0.401
% Date:               Jan 27 2022, 11:57
% Table:              Tabella delle sonde 1 - 
% Tempo (s)                                       Temperatura (degC), Punto: (0, 0.5)               Temperatura (degC), Punto: (0.5*BILLETTA_r, 0.5)  Temperatura (degC), Punto: (BILLETTA_r-10*FUNZ_depth_billetta, 0.5)Temperatura (degC), Punto: (BILLETTA_r-5*FUNZ_depth_billetta, 0.5)Temperatura (degC), Punto: (BILLETTA_r-2*FUNZ_depth_billetta, 0.5)Temperatura (degC), Punto: (BILLETTA_r-FUNZ_depth_billetta, 0.5)Temperatura (degC), Punto: (BILLETTA_r-0.01[mm], 0.5)
0                                                 20                                                20                                                20.000000005988568                                20.02754233428277                                 20.61705476762529                                 21.02871818523579                                 21.384833499681463
5                                                 537.2715253240891                                 726.9526682672214                                 1194.8114171588109                                1242.4525600600405                                1251.927599054512                                 1252.17791061563                                  1251.0933639260606
10                                                1061.0169177245534                                1229.3741018114806                                1329.4814623534385                                1339.8107174401857                                1340.1120209579467                                1338.998044874012                                 1337.2904119227496
11.616536718256256                                1217.3592177821129                                1313.572761510567                                 1389.6324634939306                                1396.1005569530862                                1395.2263484205646                                1393.8639175962871                                1391.9535820432116
