% Model:              batchmodel_BILLETTA_r_0.0131664_COIL_kr_1.4848_COIL_kw_3.2356_FUNZ_freq_7167.5_FUNZ_I_eff_61.5962.mph
% Version:            COMSOL 5.6.0.401
% Date:               Jan 27 2022, 11:57
% Table:              Tabella delle sonde 1 - 
% Tempo (s)                                       Temperatura (degC), Punto: (0, 0.5)               Temperatura (degC), Punto: (0.5*BILLETTA_r, 0.5)  Temperatura (degC), Punto: (BILLETTA_r-10*FUNZ_depth_billetta, 0.5)Temperatura (degC), Punto: (BILLETTA_r-5*FUNZ_depth_billetta, 0.5)Temperatura (degC), Punto: (BILLETTA_r-2*FUNZ_depth_billetta, 0.5)Temperatura (degC), Punto: (BILLETTA_r-FUNZ_depth_billetta, 0.5)Temperatura (degC), Punto: (BILLETTA_r-0.01[mm], 0.5)
0                                                 20                                                20                                                20.00000000001444                                 20.00005559408652                                 20.12358560010466                                 20.36732004559036                                 20.583687486304655
5                                                 255.85637586687494                                334.3608426401371                                 501.2775113891238                                 572.7718684006694                                 611.6573290878956                                 619.3126562492421                                 622.0984971766637
10                                                568.3929995878242                                 662.7337505456611                                 916.4129415571023                                 1018.8984871746292                                1056.5481698892477                                1061.9092446431773                                1063.0094651404647
15                                                750.3143918711744                                 887.585382543761                                  1074.7080841509742                                1098.5413076805403                                1103.4730665150087                                1103.4376201898826                                1102.569533135907
20                                                965.3123046538436                                 1054.2289551498816                                1122.2138973885726                                1127.9771566547765                                1127.6746246572275                                1126.8377279601864                                1125.6551385903695
25                                                1106.9086017572163                                1140.3759393981454                                1164.4574828790032                                1164.718204168776                                 1162.5917158593834                                1161.4181794471806                                1160.0520008127473
30                                                1177.4590235663964                                1195.9442169052818                                1208.0644085132267                                1206.3337819026415                                1203.3855537217514                                1202.0118104014723                                1200.49275488715
35                                                1225.539711475743                                 1239.3254169782426                                1246.7205855007956                                1243.9995949255094                                1240.5698848928992                                1239.0591869884815                                1237.421718732494
40                                                1265.8447981220438                                1277.1850780653044                                1281.650071591585                                 1278.2091818369604                                1274.3944374306725                                1272.765856543956                                 1271.0213562684412
45                                                1299.6144825060123                                1309.4612892191285                                1311.8733120906622                                1307.8634535617166                                1303.7249863694674                                1301.9931282885036                                1300.1525199869334
50                                                1331.02965913467                                  1339.469093590194                                 1340.023346751976                                 1335.501880954766                                 1331.0669118836367                                1329.2389954020296                                1327.3081521168879
55                                                1354.4120758664726                                1361.7378845758944                                1361.1003256232007                                1356.2629500254616                                1351.624347323716                                 1349.725000449434                                 1347.723958954874
60                                                1373.9665925432228                                1380.366270486143                                 1378.7943889913654                                1373.709620173739                                 1368.9062298864824                                1366.947557139014                                 1364.8874315785306
65                                                1386.491242463097                                 1392.3091206578847                                1390.2757913981004                                1385.0694587776597                                1380.1726209391682                                1378.1768520418414                                1376.0780533318007
67.6078676067777                                  1393.023768225551                                 1398.5381950769824                                1396.2641868814817                                1390.994449800337                                 1386.0488721934862                                1384.0337549266492                                1381.9147853258119
