% Model:              batchmodel_BILLETTA_r_0.0131664_COIL_kr_1.4848_COIL_kw_3.2356_FUNZ_freq_4639.7_FUNZ_I_eff_174.7421.mph
% Version:            COMSOL 5.6.0.401
% Date:               Jan 27 2022, 11:56
% Table:              Tabella delle sonde 1 - 
% Tempo (s)                                       Temperatura (degC), Punto: (0, 0.5)               Temperatura (degC), Punto: (0.5*BILLETTA_r, 0.5)  Temperatura (degC), Punto: (BILLETTA_r-10*FUNZ_depth_billetta, 0.5)Temperatura (degC), Punto: (BILLETTA_r-5*FUNZ_depth_billetta, 0.5)Temperatura (degC), Punto: (BILLETTA_r-2*FUNZ_depth_billetta, 0.5)Temperatura (degC), Punto: (BILLETTA_r-FUNZ_depth_billetta, 0.5)Temperatura (degC), Punto: (BILLETTA_r-0.01[mm], 0.5)
0                                                 20                                                19.999999999999943                                20.000000032110847                                20.074789540541474                                20.643993385775445                                20.980489952434993                                21.288521345223103
5                                                 630.0348578058154                                 1000.6460138973233                                1329.4682232739897                                1368.8802261867909                                1375.1039282827014                                1374.3904153556377                                1372.3600200960595
6.8532191330785                                   876.9072986701298                                 1257.9791611426886                                1379.0906555189754                                1395.3810376793122                                1396.392429763575                                 1394.9894435380475                                1392.6846206382406
