% Model:              batchmodel_BILLETTA_r_0.0131664_COIL_kr_1.4848_COIL_kw_3.2356_FUNZ_freq_6066_FUNZ_I_eff_85.0125.mph
% Version:            COMSOL 5.6.0.401
% Date:               Jan 27 2022, 11:56
% Table:              Tabella delle sonde 1 - 
% Tempo (s)                                       Temperatura (degC), Punto: (0, 0.5)               Temperatura (degC), Punto: (0.5*BILLETTA_r, 0.5)  Temperatura (degC), Punto: (BILLETTA_r-10*FUNZ_depth_billetta, 0.5)Temperatura (degC), Punto: (BILLETTA_r-5*FUNZ_depth_billetta, 0.5)Temperatura (degC), Punto: (BILLETTA_r-2*FUNZ_depth_billetta, 0.5)Temperatura (degC), Punto: (BILLETTA_r-FUNZ_depth_billetta, 0.5)Temperatura (degC), Punto: (BILLETTA_r-0.01[mm], 0.5)
0                                                 20                                                19.999999999999886                                20.00000000019304                                 20.001076866263702                                20.260968525524675                                20.50917942868699                                 20.742505570179446
5                                                 363.16557822632683                                484.70087057125374                                752.016219468757                                  909.6004418942572                                 980.8494873762096                                 992.634801149119                                  996.1533135413935
10                                                698.2615623568029                                 842.829393917984                                  1102.9080370339411                                1135.3424761564343                                1141.4471114598236                                1141.3712284275784                                1140.3187156925064
15                                                980.5037560755969                                 1104.5829252110975                                1168.400087281656                                 1173.7425931378525                                1172.8475849268175                                1171.7606758648894                                1170.3105643943409
20                                                1192.356034747439                                 1223.2906729615893                                1247.8723752800884                                1248.6315529148892                                1246.1029378887024                                1244.6380091549686                                1242.9011476369124
25                                                1284.0852297622332                                1309.6092365622658                                1327.6482154108953                                1326.5359942067812                                1323.0070304154146                                1321.237030475414                                 1319.2231933561102
30                                                1354.3103055613174                                1365.7323741205864                                1372.0517266256797                                1370.6397454792996                                1367.1547367872536                                1365.3257370030865                                1363.1790233042625
32.07500654185674                                 1382.8041653508199                                1387.7657889668399                                1388.8380792037715                                1387.3729834599208                                1383.9586754909124                                1382.1178338429513                                1379.9234363835135
