% Model:              batchmodel_BILLETTA_r_0.0335556_COIL_kr_1.6756_COIL_kw_4.5299_FUNZ_freq_6066_FUNZ_I_eff_162.3068.mph
% Version:            COMSOL 5.6.0.280
% Date:               Jan 27 2022, 17:37
% Table:              Tabella delle sonde 1 - 
% Tempo (s)                                       Temperatura (degC), Punto: (0, 0.5)               Temperatura (degC), Punto: (0.5*BILLETTA_r, 0.5)  Temperatura (degC), Punto: (BILLETTA_r-10*FUNZ_depth_billetta, 0.5)Temperatura (degC), Punto: (BILLETTA_r-5*FUNZ_depth_billetta, 0.5)Temperatura (degC), Punto: (BILLETTA_r-2*FUNZ_depth_billetta, 0.5)Temperatura (degC), Punto: (BILLETTA_r-FUNZ_depth_billetta, 0.5)Temperatura (degC), Punto: (BILLETTA_r-0.01[mm], 0.5)
0                                                 20                                                20                                                20.000000027318322                                20.068441511676042                                20.764919143003453                                21.20545605684225                                 21.59699776170703
5                                                 34.38432623775941                                 156.7018497942014                                 1290.918662613818                                 1368.2723004399563                                1385.2922993750744                                1386.2990884836522                                1385.0508269542938
6.2565772144300045                                54.53874485547425                                 218.58992897814136                                1338.5437959996261                                1389.9363601019736                                1400.2453338273663                                1400.3060009677597                                1398.7113320407148
