% Model:              batchmodel_BILLETTA_r_0.0335556_COIL_kr_1.4848_COIL_kw_4.5299_FUNZ_freq_6066_FUNZ_I_eff_61.5962.mph
% Version:            COMSOL 5.6.0.280
% Date:               Jan 27 2022, 16:36
% Table:              Tabella delle sonde 1 - 
% Tempo (s)                                       Temperatura (degC), Punto: (0, 0.5)               Temperatura (degC), Punto: (0.5*BILLETTA_r, 0.5)  Temperatura (degC), Punto: (BILLETTA_r-10*FUNZ_depth_billetta, 0.5)Temperatura (degC), Punto: (BILLETTA_r-5*FUNZ_depth_billetta, 0.5)Temperatura (degC), Punto: (BILLETTA_r-2*FUNZ_depth_billetta, 0.5)Temperatura (degC), Punto: (BILLETTA_r-FUNZ_depth_billetta, 0.5)Temperatura (degC), Punto: (BILLETTA_r-0.01[mm], 0.5)
0                                                 20                                                20                                                20.00000000000898                                 20.00003474143176                                 20.071376440217477                                20.226862974855862                                20.390227700451987
5                                                 23.56072471203754                                 57.484503942411834                                338.5978553342277                                 397.72339755186727                                432.6116078818616                                 440.1540128765042                                 443.05622507646
10                                                67.19615624320329                                 166.4434495723748                                 604.1966022176085                                 684.205606583736                                  726.127343294105                                  734.3836187998202                                 737.2789978331674
15                                                155.6618826083976                                 289.52526490457967                                841.4763088421365                                 966.4840046012749                                 1019.8007471331415                                1028.4154954654914                                1030.7534802605146
20                                                257.2604892412006                                 405.2787283510137                                 992.5714313238597                                 1065.5444615685342                                1085.8466602799704                                1088.0437374919234                                1087.8830231627808
25                                                353.9496800415145                                 503.5850468414136                                 1036.1872954223722                                1080.8047604017192                                1092.5164915255496                                1093.484351508107                                 1092.9037804842592
30                                                438.6688694752711                                 582.3150281819244                                 1065.2040585556765                                1094.8023128997893                                1101.5711634634922                                1101.7679535335228                                1100.9057610404507
35                                                511.27377394449456                                645.6458186756847                                 1083.838929001809                                 1104.928699892127                                 1109.1005720084881                                1108.8965690196796                                1107.8833577779874
40                                                573.5361926625926                                 698.0768343224371                                 1098.212907281199                                 1113.5720692828777                                1116.0266819811636                                1115.556162391576                                 1114.438799262416
45                                                625.9891952624014                                 743.1405626343632                                 1110.0951829329283                                1121.445344066869                                 1122.6838862122481                                1122.0203402594238                                1120.8238815470422
50                                                668.8255575417057                                 782.2996336752057                                 1119.9253177105115                                1128.7128290304759                                1129.1487770228105                                1128.3523469567276                                1127.097156768405
55                                                702.9589737033435                                 823.4546568766351                                 1129.2951151425382                                1135.9482622762948                                1135.7112869875946                                1134.8014997680866                                1133.4939247362968
60                                                729.7082221226532                                 863.6107573546195                                 1138.0885300825807                                1143.1766766339383                                1142.4350304532545                                1141.4365634064911                                1140.0844714902323
65                                                751.1155566358162                                 902.0625802586832                                 1146.8503357398317                                1150.6820330179044                                1149.5251195406404                                1148.450518849199                                 1147.0572257193921
70                                                776.163257136382                                  937.869661615464                                  1155.9069820879886                                1158.7086486295138                                1157.1998603235925                                1156.057266702172                                 1154.6240655855922
75                                                806.1302699192998                                 971.1130940529057                                 1165.3351517489818                                1167.3128794212985                                1165.509340523667                                 1164.3058544757123                                1162.8335602237812
80                                                846.7235670712815                                 1002.5587994436991                                1175.487013577032                                 1176.7626650798702                                1174.6955389590385                                1173.4338896593495                                1171.9212170666315
85                                                892.7635436914817                                 1032.3074414211887                                1186.3904323802312                                1187.0788633242064                                1184.7769925512812                                1183.459479706949                                 1181.9049038531316
90                                                940.6365420416438                                 1060.6898984043628                                1198.212827870344                                 1198.3866453034138                                1195.8656658435234                                1194.4923356805111                                1192.893230887783
95                                                977.436994643091                                  1084.8947790741986                                1211.4415904401253                                1211.1939093657606                                1208.4786789558248                                1207.0520560842433                                1205.4077857477373
100                                               1012.5582629891993                                1108.6651820344496                                1224.791540493607                                 1224.1279621941894                                1221.2201910702456                                1219.7405341266617                                1218.051173437012
105                                               1047.6795313353077                                1132.4355849947                                   1238.1414905470892                                1237.0620150226182                                1233.961703184666                                 1232.4290121690792                                1230.6945611262868
110                                               1078.286065725325                                 1154.466195220587                                 1251.5329125908297                                1250.0692479859913                                1246.7850063624414                                1245.200108382417                                 1243.4202819065758
115                                               1105.454803023912                                 1175.1720198754847                                1264.9559139676758                                1263.1322048209172                                1259.6705903041425                                1258.0341151704306                                1256.2086961841064
120                                               1132.6235403224987                                1195.877844530382                                 1278.3789153445218                                1276.1951616558426                                1272.556174245843                                 1270.8681219584441                                1268.9971104616366
125                                               1156.9386467596255                                1215.0956276316724                                1291.4591335316704                                1288.9399404341848                                1285.1310060580117                                1283.3924831646627                                1281.4762429287794
130                                               1179.4695230767438                                1233.3830140949021                                1304.3250268389093                                1301.4857786698826                                1297.5115403817213                                1295.7232387503968                                1293.7619972231819
135                                               1202.0003993938626                                1251.6704005581319                                1317.1909201461476                                1314.0316169055814                                1309.8920747054312                                1308.053994336131                                 1306.0477515175844
140                                               1222.361628766881                                 1268.678257495816                                 1329.505237961288                                 1326.0463608862347                                1321.7493247260854                                1319.8631126102014                                1317.8129366134153
145                                               1241.6193956500583                                1285.0353574797382                                1341.5390295518723                                1337.7909952112104                                1333.3404371608449                                1331.4069309430593                                1329.3133650005334
150                                               1260.8771625332356                                1301.3924574636594                                1353.572821142457                                 1349.5356295361867                                1344.9315495956048                                1342.9507492759171                                1340.8137933876505
155                                               1278.7004696513582                                1316.4533702753638                                1364.4037937195822                                1360.109134659895                                 1355.367892074296                                 1353.3443879905276                                1351.167977289966
160                                               1294.9962988982052                                1330.1340441491575                                1373.9539500124383                                1369.4355682498312                                1364.5745830860865                                1362.513263238316                                 1360.3015880341768
165                                               1310.189667339203                                 1342.8185272693127                                1382.5796740896453                                1377.8619249784738                                1372.8937702115009                                1370.798162525471                                 1368.55424718309
170                                               1324.280574974352                                 1354.5068196358288                                1390.2809659512027                                1385.3882048458227                                1380.3254534505377                                1378.199085851993                                 1375.9259547367055
175                                               1337.2690218036519                                1365.1989212487065                                1397.0578255971104                                1392.014407851877                                 1386.8696328031974                                1384.7160332178819                                1382.416710695024
176.447748755588                                  1340.8240000865776                                1368.1088333698763                                1398.8474772987142                                1393.7649839692913                                1388.5988062962529                                1386.437980339942                                 1384.1316387336265
