% Model:              batchmodel_BILLETTA_r_0.0335556_COIL_kr_1.9397_COIL_kw_3.2356_FUNZ_freq_4639.7_FUNZ_I_eff_127.5152.mph
% Version:            COMSOL 5.6.0.280
% Date:               Jan 27 2022, 18:12
% Table:              Tabella delle sonde 1 - 
% Tempo (s)                                       Temperatura (degC), Punto: (0, 0.5)               Temperatura (degC), Punto: (0.5*BILLETTA_r, 0.5)  Temperatura (degC), Punto: (BILLETTA_r-10*FUNZ_depth_billetta, 0.5)Temperatura (degC), Punto: (BILLETTA_r-5*FUNZ_depth_billetta, 0.5)Temperatura (degC), Punto: (BILLETTA_r-2*FUNZ_depth_billetta, 0.5)Temperatura (degC), Punto: (BILLETTA_r-FUNZ_depth_billetta, 0.5)Temperatura (degC), Punto: (BILLETTA_r-0.01[mm], 0.5)
0                                                 20.000000000000057                                19.999999999999943                                20.000000001878277                                20.015022133904324                                20.39746633748058                                 20.676272362533666                                20.94012549165518
5                                                 27.931218069107103                                116.47181054082643                                958.5063708700151                                 1147.845018341121                                 1195.3740775555157                                1200.9477638193403                                1201.472744516309
10                                                125.4065031881205                                 318.84270696347676                                1209.140564267505                                 1262.4668082099965                                1273.2653105439017                                1273.4456395991933                                1271.988845974282
15                                                268.67160065334235                                485.24930507858085                                1262.9318323170137                                1289.4480257813739                                1293.3118647794608                                1292.4973814097802                                1290.6648679450627
20                                                399.2584060851236                                 615.7175105908622                                 1296.7364823065345                                1314.0150441154833                                1315.482026416726                                 1314.295068733752                                 1312.2828960019315
25                                                508.07351991579515                                724.3065633350175                                 1334.9220051830698                                1348.4774826124467                                1348.8673168565115                                1347.457900841589                                 1345.2814036562559
30                                                598.922719565609                                  837.2064137699114                                 1375.8644951384936                                1386.8039589095752                                1386.3355045913177                                1384.726291691713                                 1382.3788613007819
30.02716511184111                                 599.370287636397                                  837.8720325657554                                 1376.086163403936                                 1387.0096423786113                                1386.535983333264                                 1384.9256424326677                                1382.5772737891843
