% Model:              batchmodel_BILLETTA_r_0.0335556_COIL_kr_1.6756_COIL_kw_3.7744_FUNZ_freq_2540.9_FUNZ_I_eff_174.7421.mph
% Version:            COMSOL 5.6.0.280
% Date:               Jan 27 2022, 17:20
% Table:              Tabella delle sonde 1 - 
% Tempo (s)                                       Temperatura (degC), Punto: (0, 0.5)               Temperatura (degC), Punto: (0.5*BILLETTA_r, 0.5)  Temperatura (degC), Punto: (BILLETTA_r-10*FUNZ_depth_billetta, 0.5)Temperatura (degC), Punto: (BILLETTA_r-5*FUNZ_depth_billetta, 0.5)Temperatura (degC), Punto: (BILLETTA_r-2*FUNZ_depth_billetta, 0.5)Temperatura (degC), Punto: (BILLETTA_r-FUNZ_depth_billetta, 0.5)Temperatura (degC), Punto: (BILLETTA_r-0.01[mm], 0.5)
0                                                 20                                                20                                                20.00000000894073                                 20.0375049922651                                  20.352497260460325                                20.545749749189326                                20.740744513573816
5                                                 34.15169030364933                                 135.39300806626454                                938.8403707799263                                 1192.2865422664768                                1254.991806755825                                 1261.8598238974396                                1262.0805220931074
9.695024148865                                    135.11046595967383                                347.28734128086876                                1302.4350600161833                                1376.209359861321                                 1389.6080907142682                                1389.3012846173815                                1386.687584783811
