% Model:              batchmodel_BILLETTA_r_0.0335556_COIL_kr_2.7711_COIL_kw_5.3284_FUNZ_freq_7167.5_FUNZ_I_eff_85.0125.mph
% Version:            COMSOL 5.6.0.280
% Date:               Jan 27 2022, 20:53
% Table:              Tabella delle sonde 1 - 
% Tempo (s)                                       Temperatura (degC), Punto: (0, 0.5)               Temperatura (degC), Punto: (0.5*BILLETTA_r, 0.5)  Temperatura (degC), Punto: (BILLETTA_r-10*FUNZ_depth_billetta, 0.5)Temperatura (degC), Punto: (BILLETTA_r-5*FUNZ_depth_billetta, 0.5)Temperatura (degC), Punto: (BILLETTA_r-2*FUNZ_depth_billetta, 0.5)Temperatura (degC), Punto: (BILLETTA_r-FUNZ_depth_billetta, 0.5)Temperatura (degC), Punto: (BILLETTA_r-0.01[mm], 0.5)
0                                                 20                                                19.999999999999943                                20.000000000271086                                20.001449046678886                                20.309492311745657                                20.61403172005123                                 20.897643228531706
5                                                 27.98966245854382                                 86.61309680632394                                 648.2182304573657                                 786.1140430340757                                 865.050739778516                                  880.3490453076689                                 885.5862358340627
10                                                105.10083558874993                                250.36903252870138                                1028.0458166947283                                1118.280327127371                                 1141.0581120294341                                1143.4640993720254                                1143.3251872711385
15                                                223.03913397798766                                394.43590621909584                                1108.3532301168962                                1148.5587440081117                                1157.3121532940959                                1157.6868119667906                                1156.8418545226677
20                                                333.93270112735775                                505.78812154124466                                1136.6404363453394                                1160.5605522516325                                1165.026548666703                                 1164.7952779567936                                1163.7368528451384
25                                                429.59631574910145                                594.4392327654305                                 1155.9258023038751                                1171.7608988670918                                1174.0374284279314                                1173.484692450581                                 1172.3022831105677
30                                                511.68506208828626                                667.948074205792                                  1175.4416649439959                                1186.8275542276824                                1187.8405397655833                                1187.0842473405778                                1185.8057323542912
35                                                581.4935715613316                                 729.5535428513784                                 1195.0551181626538                                1203.8968995687069                                1204.1480237805208                                1203.2537252777129                                1201.8953696693443
40                                                639.6319845505733                                 786.8197822222252                                 1216.181364105562                                 1223.4597898162538                                1223.2093674444409                                1222.2118701910367                                1220.78269967818
45                                                686.5683198388731                                 849.0898443078464                                 1240.0559039309696                                1246.3409453487598                                1245.7242653152261                                1244.6356559579667                                1243.1324709992045
50                                                722.2009394626842                                 913.1602791002557                                 1267.5822526895809                                1273.1533904987573                                1272.2146600487076                                1271.0316108265415                                1269.4433919617732
55                                                749.7348696303646                                 974.3939478747553                                 1298.5746282638693                                1303.5076507471922                                1302.2328268009937                                1300.9441594789641                                1299.2578919800153
60                                                782.8054011100834                                 1032.4406748211668                                1331.9481169284932                                1336.1821031141062                                1334.5263006041055                                1333.1184336739093                                1331.3223943685953
65                                                840.0513093947189                                 1088.2657222325606                                1365.0380834482344                                1368.358635276164                                 1366.2631478812664                                1364.7274916478336                                1362.8176805903631
68.65506561746159                                 900.1906047943397                                 1127.931484769083                                 1385.5918813176354                                1387.9823796855007                                1385.5325516745952                                1383.9081963707636                                1381.9246843391734
