% Model:              batchmodel_BILLETTA_r_0.0335556_COIL_kr_1.9397_COIL_kw_5.8583_FUNZ_freq_8940.8_FUNZ_I_eff_127.5152.mph
% Version:            COMSOL 5.6.0.280
% Date:               Jan 27 2022, 19:11
% Table:              Tabella delle sonde 1 - 
% Tempo (s)                                       Temperatura (degC), Punto: (0, 0.5)               Temperatura (degC), Punto: (0.5*BILLETTA_r, 0.5)  Temperatura (degC), Punto: (BILLETTA_r-10*FUNZ_depth_billetta, 0.5)Temperatura (degC), Punto: (BILLETTA_r-5*FUNZ_depth_billetta, 0.5)Temperatura (degC), Punto: (BILLETTA_r-2*FUNZ_depth_billetta, 0.5)Temperatura (degC), Punto: (BILLETTA_r-FUNZ_depth_billetta, 0.5)Temperatura (degC), Punto: (BILLETTA_r-0.01[mm], 0.5)
0                                                 20                                                20                                                20.000000012171938                                20.033118625590987                                20.774616235753626                                21.306047940064502                                21.751771442463223
5                                                 36.43195485847161                                 142.56124503059323                                1186.1662333987483                                1260.8561970927403                                1278.480801082815                                 1280.0033815681873                                1279.427330751199
10                                                150.48840725902778                                343.64969159421673                                1297.2511612750027                                1325.5934034559477                                1331.0321652451958                                1330.7808898279932                                1329.5252261534606
15                                                288.9408513216582                                 503.11784996654274                                1349.4067505151634                                1367.9841684118123                                1370.8591505178265                                1370.197634445245                                 1368.730356727523
15.511941576635886                                302.6237667157071                                 517.8769168640177                                 1355.6430259272565                                1373.634583567426                                 1376.3344805142788                                1375.6400043063995                                1374.1510336368206
