% Model:              batchmodel_BILLETTA_r_0.0335556_COIL_kr_2.4069_COIL_kw_3.7744_FUNZ_freq_4639.7_FUNZ_I_eff_61.5962.mph
% Version:            COMSOL 5.6.0.280
% Date:               Jan 27 2022, 19:25
% Table:              Tabella delle sonde 1 - 
% Tempo (s)                                       Temperatura (degC), Punto: (0, 0.5)               Temperatura (degC), Punto: (0.5*BILLETTA_r, 0.5)  Temperatura (degC), Punto: (BILLETTA_r-10*FUNZ_depth_billetta, 0.5)Temperatura (degC), Punto: (BILLETTA_r-5*FUNZ_depth_billetta, 0.5)Temperatura (degC), Punto: (BILLETTA_r-2*FUNZ_depth_billetta, 0.5)Temperatura (degC), Punto: (BILLETTA_r-FUNZ_depth_billetta, 0.5)Temperatura (degC), Punto: (BILLETTA_r-0.01[mm], 0.5)
0                                                 20                                                19.999999999999886                                20.00000000001296                                 20.000053176755273                                20.106825462870916                                20.254010650259772                                20.414185316050293
5                                                 23.489201740321448                                51.31060347886637                                 266.09969851693404                                314.67366092816883                                344.40010107366925                                350.92249838615453                                353.49528184922406
10                                                59.80552423948177                                 143.65836361760023                                498.9570309026707                                 575.9098348925623                                 618.2890250536325                                 626.7328193947138                                 629.7893536239459
15                                                136.66715445485346                                256.6673623462775                                 707.2740784726822                                 812.3513601543615                                 869.5086098295827                                 879.995727294881                                  883.3283322187668
20                                                231.80536750962784                                369.46528692637924                                899.2986707375682                                 1025.867264411892                                 1072.4301775686658                                1079.2639293346465                                1080.6794773499078
25                                                325.84285391943274                                470.07623459321917                                997.290600754692                                  1066.4770203354096                                1085.2688922444354                                1087.1406031543534                                1086.7375512381786
30                                                411.77854859755837                                553.6857901353776                                 1033.9257955714747                                1079.6842853060448                                1091.3752475936608                                1092.2227188295146                                1091.4656386146903
35                                                486.1844304951759                                 621.230539689979                                  1059.6423382254284                                1091.3022088989314                                1098.455144120374                                 1098.602062911239                                 1097.589877244266
40                                                550.3134342522964                                 676.1267411919579                                 1077.064990205557                                 1099.9605944484924                                1104.4245355001744                                1104.1588031901115                                1102.993024650129
45                                                604.7049113664762                                 720.4199179034282                                 1088.9708925165064                                1106.6730163998745                                1109.587762630655                                 1109.0825419549542                                1107.8238854030274
50                                                650.5819691306459                                 761.6564893895267                                 1099.7589544223756                                1113.3276714609674                                1114.984618535138                                 1114.2807421732364                                1112.942076189574
55                                                688.1293330832987                                 801.0072080137433                                 1110.0250191214018                                1120.1787537283421                                1120.7625870015172                                1119.8846595290634                                1118.472995496939
60                                                718.4372400620507                                 840.0190154474056                                 1119.147067081481                                 1126.6698136756354                                1126.423782556194                                 1125.4087794593456                                1123.9368883166512
65                                                741.4076316155769                                 878.5310461269208                                 1127.1628771895043                                1132.8419840498168                                1132.0072428373032                                1130.891529734066                                 1129.3718511368752
70                                                766.1750830384377                                 914.6334022171469                                 1134.9198894069773                                1139.10530533276                                  1137.7859156253126                                1136.5845869218688                                1135.0216404067833
75                                                793.2301309703286                                 948.2360388229919                                 1142.460376623802                                 1145.4786541858584                                1143.7715617467456                                1142.4986274185362                                1140.8965359379176
80                                                832.1346948179402                                 977.9772506291073                                 1150.2520137957426                                1152.3857993590436                                1150.3698081043972                                1149.0354370553628                                1147.3958858926976
85                                                875.2218676662384                                 1006.8159127187665                                1158.2177560451187                                1159.4773378334594                                1157.1535006829718                                1155.7573556867028                                1154.0797080099728
90                                                916.0339888712323                                 1033.334265830304                                 1166.9498427150356                                1167.4863638910733                                1164.8931776539735                                1163.4386929551624                                1161.7214135137629
95                                                955.7251546420902                                 1058.7093644730676                                1176.059519909173                                 1175.9474511997655                                1173.10388388833                                  1171.5927515959288                                1169.8350839465884
100                                               991.0848087577195                                 1082.0130620637601                                1185.9619084201745                                1185.2877983176554                                1182.2137261489288                                1180.646622908138                                 1178.8460981945232
105                                               1023.6558609923653                                1103.983203766843                                 1196.374639842666                                 1195.1942077604253                                1191.9024269267406                                1190.279788357786                                 1188.4348171446222
110                                               1054.6286536209523                                1125.212476388404                                 1206.9665592157917                                1205.3036548106725                                1201.8017559350087                                1200.1247012693266                                1198.2355599053935
115                                               1082.5432545028875                                1145.024132183592                                 1217.9013459864618                                1215.8016044127548                                1212.1041117816899                                1210.3747826140052                                1208.441999879204
120                                               1108.216551103077                                 1163.7968372111236                                1229.0874152893762                                1226.5842818883752                                1222.701840140438                                 1220.921806014399                                 1218.9457694438338
125                                               1131.6485434215215                                1181.5305914709988                                1240.5247671245347                                1237.6516872375332                                1233.594941011254                                 1231.765771470507                                 1229.746868599283
130                                               1153.2995561061043                                1198.4055871263527                                1251.9445176435183                                1248.725657206944                                 1244.5015776449109                                1242.6241941598473                                1240.5625949598143
135                                               1173.6757694523299                                1214.61996634229                                  1263.0509978951313                                1259.500319064408                                 1255.1118378747155                                1253.1864492840805                                1251.082084491079
140                                               1192.2886452555267                                1229.982492876567                                 1274.1295717702187                                1270.2708848455845                                1265.7248323829022                                1263.7523353194715                                1261.6053665671693
145                                               1209.1381835156953                                1244.4931667291835                                1285.1802392687805                                1281.0373545504744                                1276.3405611694716                                1274.321852266019                                 1272.1324411880855
150                                               1224.7210183099692                                1258.3157127500572                                1296.070560198848                                 1291.660033608307                                 1286.8176229069877                                1284.7535304650187                                1282.5220326639856
155                                               1240.1824866188845                                1271.8277130139572                                1306.4951011305466                                1301.8167585485344                                1296.8299180044924                                1294.7211127400105                                1292.4483311492
160                                               1254.627841885515                                 1284.7341973356033                                1316.6924691414388                                1311.7592060924526                                1306.6321981125338                                1304.4794738486166                                1302.1658619429022
165                                               1268.057084109861                                 1297.0351657149963                                1326.662664231525                                 1321.487376240062                                 1316.2244632311103                                1314.0286137908365                                1311.6746250450924
170                                               1280.6258863286907                                1308.7605172414183                                1336.3278310531646                                1330.9234785403655                                1325.5296909428557                                1323.2918570735173                                1320.8983160264906
175                                               1293.140969802204                                 1320.065193525089                                 1345.284511400197                                 1339.6643910914431                                1334.148739412466                                 1331.8718596751946                                1329.4415137748415
180                                               1305.048154422674                                 1330.8427568625784                                1353.8098623567162                                1347.9870399519655                                1342.3558005773539                                1340.0415785185173                                1337.5758542633098
185                                               1316.3474401901017                                1341.0932072538885                                1361.9038839227214                                1355.891425121933                                 1350.1508744375192                                1347.801013603485                                 1345.3013374918955
190                                               1327.030304767327                                 1350.7936460429169                                1369.5433898264637                                1363.3548283119953                                1357.511585418125                                 1355.127913327447                                 1352.5958354716768
195                                               1336.9169111264064                                1359.4608693643322                                1376.2391069821015                                1369.8978517278547                                1363.965767632984                                 1361.5527278459358                                1358.992406835796
200                                               1346.1203517545473                                1367.3987452679107                                1382.2987201352876                                1375.8219699297779                                1369.81034777764                                  1367.37073872797                                  1364.7846927835212
205                                               1354.6406266517506                                1374.6072737536529                                1387.722229286021                                 1381.1271829177663                                1375.045325852092                                 1372.5819459735499                                1369.9726933148518
210                                               1362.4777358180163                                1381.0864548215582                                1392.5096344343028                                1385.813490691819                                 1379.6707018563407                                1377.186349582676                                 1374.5564084297894
214.72894732228565                                1369.2613737009078                                1386.5432843706421                                1396.4521984055855                                1389.6762633586313                                1383.4844062183038                                1380.9827934631412                                1378.3356024996392
