% Model:              batchmodel_BILLETTA_r_0.0335556_COIL_kr_2.7711_COIL_kw_3.2356_FUNZ_freq_6066_FUNZ_I_eff_162.3068.mph
% Version:            COMSOL 5.6.0.280
% Date:               Jan 27 2022, 20:15
% Table:              Tabella delle sonde 1 - 
% Tempo (s)                                       Temperatura (degC), Punto: (0, 0.5)               Temperatura (degC), Punto: (0.5*BILLETTA_r, 0.5)  Temperatura (degC), Punto: (BILLETTA_r-10*FUNZ_depth_billetta, 0.5)Temperatura (degC), Punto: (BILLETTA_r-5*FUNZ_depth_billetta, 0.5)Temperatura (degC), Punto: (BILLETTA_r-2*FUNZ_depth_billetta, 0.5)Temperatura (degC), Punto: (BILLETTA_r-FUNZ_depth_billetta, 0.5)Temperatura (degC), Punto: (BILLETTA_r-0.01[mm], 0.5)
0                                                 20                                                20                                                20.000000025047484                                20.067347649106182                                20.763322288034033                                21.205619128521278                                21.597037482402584
4.9254691651002664                                31.11670841871944                                 150.53284384325377                                1290.386258831681                                 1367.4331378057082                                1384.4115289354409                                1385.4147676973325                                1384.1675333057865
