% Model:              batchmodel_BILLETTA_r_0.0335556_COIL_kr_1.9397_COIL_kw_5.8583_FUNZ_freq_6066_FUNZ_I_eff_162.3068.mph
% Version:            COMSOL 5.6.0.280
% Date:               Jan 27 2022, 19:04
% Table:              Tabella delle sonde 1 - 
% Tempo (s)                                       Temperatura (degC), Punto: (0, 0.5)               Temperatura (degC), Punto: (0.5*BILLETTA_r, 0.5)  Temperatura (degC), Punto: (BILLETTA_r-10*FUNZ_depth_billetta, 0.5)Temperatura (degC), Punto: (BILLETTA_r-5*FUNZ_depth_billetta, 0.5)Temperatura (degC), Punto: (BILLETTA_r-2*FUNZ_depth_billetta, 0.5)Temperatura (degC), Punto: (BILLETTA_r-FUNZ_depth_billetta, 0.5)Temperatura (degC), Punto: (BILLETTA_r-0.01[mm], 0.5)
0                                                 20                                                19.999999999999886                                20.00000002504754                                 20.067347703913015                                20.763322528924334                                21.205619437259372                                21.597037843917974
5                                                 37.00653895346113                                 157.42409170066242                                1279.9339535321192                                1358.1018866584618                                1375.5182028878303                                1376.5994346779148                                1375.3995180303177
6.217858573815156                                 56.64480278277159                                 216.3512757476356                                 1331.2044938778963                                1385.2814288618138                                1396.152848677721                                 1396.2912832131128                                1394.732292435177
