% Model:              batchmodel_BILLETTA_r_0.0335556_COIL_kr_2.4069_COIL_kw_4.5299_FUNZ_freq_4639.7_FUNZ_I_eff_85.0125.mph
% Version:            COMSOL 5.6.0.280
% Date:               Jan 27 2022, 19:37
% Table:              Tabella delle sonde 1 - 
% Tempo (s)                                       Temperatura (degC), Punto: (0, 0.5)               Temperatura (degC), Punto: (0.5*BILLETTA_r, 0.5)  Temperatura (degC), Punto: (BILLETTA_r-10*FUNZ_depth_billetta, 0.5)Temperatura (degC), Punto: (BILLETTA_r-5*FUNZ_depth_billetta, 0.5)Temperatura (degC), Punto: (BILLETTA_r-2*FUNZ_depth_billetta, 0.5)Temperatura (degC), Punto: (BILLETTA_r-FUNZ_depth_billetta, 0.5)Temperatura (degC), Punto: (BILLETTA_r-0.01[mm], 0.5)
0                                                 20                                                19.999999999999943                                20.000000000092996                                20.00053125446118                                 20.19719071604078                                 20.396705317808255                                20.597152342745687
5                                                 27.231481569543803                                77.13850922600062                                 497.71458170938706                                613.7609168351047                                 674.6509096309986                                 686.368908638635                                  690.5582014222372
10                                                95.62976822881342                                 225.90343377801582                                871.1665445350794                                 1031.2909515115634                                1085.8839197303046                                1093.3261008809714                                1094.8173816229842
15                                                206.5366701183994                                 369.7036147893929                                 1043.8490905737135                                1117.5655392620802                                1134.936054909213                                 1136.3549339480692                                1135.6579761859402
20                                                315.2660596975812                                 482.58285584448436                                1101.9040349476395                                1144.9864983825032                                1153.7828218083305                                1153.9439969442265                                1152.7845106995746
25                                                410.2062511703398                                 572.7979483276238                                 1124.0400033249612                                1150.8535842318915                                1155.4884691990828                                1155.0793688815706                                1153.7309355981356
30                                                491.2461847096031                                 646.2531957355603                                 1140.2315937886005                                1158.1806497351986                                1160.450885944405                                 1159.7033928458268                                1158.231850458506
35                                                562.105093757495                                  708.6338694276415                                 1155.565299196308                                 1168.2160272760261                                1169.0179021009262                                1168.045433601878                                 1166.4779178856575
40                                                622.1483383330266                                 763.0844473883384                                 1170.0104284058143                                1179.352526112701                                 1179.2081033960558                                1178.0790727660433                                1176.4333153513608
45                                                671.5953074413757                                 820.1253638968029                                 1184.390738778167                                 1191.5522020378467                                1190.7521309804533                                1189.5034330492153                                1187.7874685914967
50                                                710.0165613879332                                 878.3112990198023                                 1199.707894783514                                 1205.3620926170229                                1204.0796047854728                                1202.7321317384335                                1200.9484316839194
55                                                738.8759642324363                                 934.1972637551006                                 1216.6304036695647                                1221.2228056927343                                1219.567726797738                                 1218.1337445307695                                1216.283166729445
60                                                766.216353273078                                  985.8553036367717                                 1235.6619051368111                                1239.4804494882296                                1237.5124045787766                                1235.9950144096397                                1234.0732978271285
65                                                805.927778194189                                  1033.6704484672277                                1257.0141037328135                                1260.2034879065554                                1257.937530026456                                 1256.3316626859068                                1254.3294952638375
70                                                866.7718731706096                                 1078.8826440772918                                1280.5032449816326                                1283.0840892206152                                1280.5016369034684                                1278.7977766366303                                1276.7047338153843
75                                                939.3777539730021                                 1122.1128073311015                                1305.4206739052229                                1307.3303882139758                                1304.3958066102177                                1302.5839489238474                                1300.391631075584
80                                                1005.7325176314781                                1163.148537353708                                 1330.850123165461                                 1332.0069276428558                                1328.6872333695105                                1326.7599365118035                                1324.4630325975031
85                                                1065.8239026744027                                1201.1180616406268                                1354.7646577655896                                1355.0996015819228                                1351.3893884829504                                1349.3490369135684                                1346.9510408375013
90                                                1116.2669568289211                                1236.064385025154                                 1373.3099839567303                                1372.810917232037                                 1368.7676279331104                                1366.6373796256798                                1364.160054062943
94.51022533923859                                 1161.7688650361797                                1267.5875436735787                                1390.0387039790762                                1388.7873221593168                                1384.4435831170035                                1382.232243900401                                 1379.6833595654784
