% Model:              batchmodel_BILLETTA_r_0.0335556_COIL_kr_2.4069_COIL_kw_3.2356_FUNZ_freq_6066_FUNZ_I_eff_61.5962.mph
% Version:            COMSOL 5.6.0.280
% Date:               Jan 27 2022, 19:16
% Table:              Tabella delle sonde 1 - 
% Tempo (s)                                       Temperatura (degC), Punto: (0, 0.5)               Temperatura (degC), Punto: (0.5*BILLETTA_r, 0.5)  Temperatura (degC), Punto: (BILLETTA_r-10*FUNZ_depth_billetta, 0.5)Temperatura (degC), Punto: (BILLETTA_r-5*FUNZ_depth_billetta, 0.5)Temperatura (degC), Punto: (BILLETTA_r-2*FUNZ_depth_billetta, 0.5)Temperatura (degC), Punto: (BILLETTA_r-FUNZ_depth_billetta, 0.5)Temperatura (degC), Punto: (BILLETTA_r-0.01[mm], 0.5)
0                                                 20.000000000000057                                19.999999999999886                                20.000000000022567                                20.000104441330905                                20.141220540434915                                20.33296986276605                                 20.531671295891613
5                                                 24.73509477875922                                 57.59756215740151                                 325.86203495628695                                380.7214730325294                                 413.51381676930987                                420.60844623663525                                423.3594978113946
10                                                74.06439619726325                                 167.93589010682547                                604.2510266981357                                 690.7489522973334                                 736.8322959888267                                 745.9543930871099                                 749.1496807333017
15                                                162.08825681174346                                290.53735492471606                                841.291383804051                                  962.4243441861851                                 1014.5035762380118                                1023.0414358185325                                1025.3754969814795
20                                                259.81531476226166                                403.41458255742066                                982.4266152835047                                 1060.1586487521486                                1082.647423831152                                 1085.2024377000098                                1085.173540870538
25                                                351.2679246967555                                 497.0871273290603                                 1040.0411869219574                                1088.1722508166654                                1099.6280805816655                                1100.4646576999367                                1099.8135737819075
30                                                430.36112722135056                                571.1890990938231                                 1062.0084440106757                                1094.1621261712035                                1101.646572627053                                 1101.942777265082                                 1101.1128348494522
35                                                497.99383762659784                                631.0708919473792                                 1078.386889621047                                 1101.9725609710995                                1106.946327302056                                 1106.8672717585523                                1105.9008880622068
40                                                558.1815529943265                                 682.6944211529872                                 1092.8869385486955                                1110.1733778170506                                1113.2332622274948                                1112.8591338406645                                1111.7802760620475
45                                                610.7022912319821                                 726.4959282704125                                 1104.6612394941544                                1117.8283406335804                                1119.6131635765291                                1119.0359767526325                                1117.8750297352526
50                                                654.9748355821838                                 766.8079787225662                                 1115.1178980979912                                1125.1154650968601                                1125.923678377364                                 1125.188761003184                                 1123.9611829363494
55                                                691.1336768458228                                 805.2795998158768                                 1124.4124892454865                                1132.1397217199187                                1132.2427903619641                                1131.3905014258085                                1130.1097994978409
60                                                719.0505474297406                                 845.08126882983                                   1133.0946300074575                                1139.0768802529515                                1138.6269558782392                                1137.6797526113419                                1136.3532631784014
65                                                741.8249697329868                                 883.5798120448861                                 1141.875273139507                                 1146.3928861432878                                1145.4669633343497                                1144.4351298822817                                1143.0651847898994
70                                                762.5988236069583                                 920.3522423432499                                 1150.73177522194                                  1154.0921584741714                                1152.7770661822315                                1151.6724065340745                                1150.261813735794
75                                                787.4828704404096                                 954.2032282387016                                 1159.934699709786                                 1162.3609697447555                                1160.7195995105835                                1159.5500935980294                                1158.0999915308794
80                                                822.8873951932477                                 986.0829782155416                                 1169.7213177790618                                1171.3709989260815                                1169.4462827369366                                1168.2166568814864                                1166.726679131567
85                                                866.4577692780191                                 1016.2058317426139                                1180.1541689417545                                1181.1683965776356                                1178.997841796669                                 1177.711889512002                                 1176.1812259898784
90                                                915.3280750061571                                 1045.1363054215885                                1191.436605829182                                 1191.9014054516488                                1189.5049875441841                                1188.1635512671319                                1186.5900096078312
95                                                962.115441444044                                  1072.8125076122192                                1203.6122686807935                                1203.5791413146412                                1200.969119032909                                 1199.5725879526376                                1197.9544645387377
100                                               1002.2704671730547                                1098.0543446149345                                1216.8046979241149                                1216.3359011107677                                1213.5273781050705                                1212.076676469585                                 1210.4127011474056
105                                               1034.1181585815816                                1120.940512246571                                 1230.482983035468                                 1229.6119942216537                                1226.6134034292859                                1225.1095296076278                                1223.3998922486408
110                                               1065.9658499901084                                1143.8266798782065                                1244.1612681468205                                1242.8880873325397                                1239.6994287535008                                1238.1423827456706                                1236.3870833498759
115                                               1095.9304611467514                                1165.8998503974863                                1257.780122723852                                 1256.1199518920953                                1252.7455399578148                                1251.1357839747525                                1249.3347362213044
120                                               1121.9388362898467                                1186.2649638907315                                1271.2741173965046                                1269.2588949803412                                1265.7077940464033                                1264.0462991649215                                1262.1993216990222
125                                               1147.9472114329415                                1206.630077383977                                 1284.7681120691577                                1282.3978380685871                                1278.6700481349926                                1276.956814355091                                 1275.0639071767391
130                                               1171.7395945692429                                1225.7805666474292                                1297.973399926313                                 1295.2683039883145                                1291.369893714063                                 1289.6057868428566                                1287.6671797304389
135                                               1193.8942608989732                                1244.0333944984295                                1310.9653205860864                                1307.940353320926                                 1303.8758077153534                                1302.0614676228674                                1300.0773303928481
140                                               1216.0489272287036                                1262.2862223494299                                1323.9572412458597                                1320.6124026535385                                1316.3817217166438                                1314.5171484028788                                1312.487481055257
145                                               1233.3199539330717                                1277.114109524745                                 1334.6714076533344                                1331.0701146376282                                1326.7036165225668                                1324.796872609356                                 1322.7282464882783
150                                               1249.573467194236                                 1291.2284053118697                                1344.9110006381534                                1341.0664662035151                                1336.5704677417443                                1334.6232330881126                                1332.5170173427232
155                                               1265.8269804554002                                1305.342701098995                                 1355.1505936229714                                1351.062817769402                                 1346.4373189609214                                1344.4495935668697                                1342.3057881971677
160                                               1282.0804937165644                                1319.4569968861197                                1365.39018660779                                  1361.0591693352885                                1356.3041701800985                                1354.2759540456263                                1352.0945590516121
165                                               1298.3340069777291                                1333.5712926732444                                1375.6297795926089                                1371.0555209011754                                1366.171021399276                                 1364.102314524383                                 1361.8833299060566
165.86213103725729                                1301.1365386271136                                1336.0049671666666                                1377.3953537768275                                1372.7791538900328                                1367.8723251344863                                1365.796636594786                                 1363.5711705401
