% Model:              batchmodel_BILLETTA_r_0.0335556_COIL_kr_1.6756_COIL_kw_4.5299_FUNZ_freq_6066_FUNZ_I_eff_174.7421.mph
% Version:            COMSOL 5.6.0.280
% Date:               Jan 27 2022, 17:37
% Table:              Tabella delle sonde 1 - 
% Tempo (s)                                       Temperatura (degC), Punto: (0, 0.5)               Temperatura (degC), Punto: (0.5*BILLETTA_r, 0.5)  Temperatura (degC), Punto: (BILLETTA_r-10*FUNZ_depth_billetta, 0.5)Temperatura (degC), Punto: (BILLETTA_r-5*FUNZ_depth_billetta, 0.5)Temperatura (degC), Punto: (BILLETTA_r-2*FUNZ_depth_billetta, 0.5)Temperatura (degC), Punto: (BILLETTA_r-FUNZ_depth_billetta, 0.5)Temperatura (degC), Punto: (BILLETTA_r-0.01[mm], 0.5)
0                                                 20                                                20                                                20.000000042137117                                20.090157317386286                                20.85365280251233                                 21.32105962298192                                 21.734292137357727
3.6614372241890534                                24.67438396241488                                 100.31589752943779                                1243.1757074038287                                1355.8689782377314                                1381.799094977141                                 1384.020089997704                                 1383.179961390977
