% Model:              batchmodel_BILLETTA_r_0.0335556_COIL_kr_1.9397_COIL_kw_3.2356_FUNZ_freq_6066_FUNZ_I_eff_85.0125.mph
% Version:            COMSOL 5.6.0.280
% Date:               Jan 27 2022, 18:14
% Table:              Tabella delle sonde 1 - 
% Tempo (s)                                       Temperatura (degC), Punto: (0, 0.5)               Temperatura (degC), Punto: (0.5*BILLETTA_r, 0.5)  Temperatura (degC), Punto: (BILLETTA_r-10*FUNZ_depth_billetta, 0.5)Temperatura (degC), Punto: (BILLETTA_r-5*FUNZ_depth_billetta, 0.5)Temperatura (degC), Punto: (BILLETTA_r-2*FUNZ_depth_billetta, 0.5)Temperatura (degC), Punto: (BILLETTA_r-FUNZ_depth_billetta, 0.5)Temperatura (degC), Punto: (BILLETTA_r-0.01[mm], 0.5)
0                                                 20.000000000000057                                20                                                20.000000000172406                                20.0010067280092                                  20.26060855037747                                 20.519269308564105                                20.76797017189091
5                                                 29.112229259881587                                89.21538338021259                                 611.3866719852549                                 742.542783254427                                  813.1688211687032                                 827.0063987822913                                 831.7837855565723
10                                                106.42668009369362                                249.26377151973793                                998.0705267224952                                 1110.7049679769138                                1138.288568655294                                 1141.1137797771084                                1141.008646446619
15                                                221.45827449538007                                388.36489892477834                                1092.949290635297                                 1146.5950191117472                                1158.7929351763519                                1159.5762285189771                                1158.7721537690581
20                                                329.75282994466136                                498.4926427800506                                 1120.9841005360313                                1150.385953055148                                 1156.1441604438342                                1156.0325609806164                                1154.9416146740773
25                                                423.3246092529905                                 586.2318830782484                                 1142.1305702120221                                1161.4380198930357                                1164.4591699609741                                1163.949234715656                                 1162.7091942007482
30                                                504.8220222376294                                 659.8682808312258                                 1160.7454147121734                                1174.0599835748767                                1175.4182235629341                                1174.6532549406697                                1173.3046127439993
35                                                574.8331250157066                                 721.5672742193333                                 1178.357256612469                                 1188.158970648361                                 1188.5047511724451                                1187.5705750692346                                1186.136059336748
40                                                633.5473903582167                                 778.3599071818832                                 1196.049109873697                                 1203.7589909849762                                1203.4663338823484                                1202.4121169269556                                1200.9039680517012
45                                                681.3412990407429                                 837.7203528092956                                 1215.2949126642839                                1221.6507871120489                                1220.9101423179886                                1219.7593817381135                                1218.1817338561013
50                                                717.7899832972902                                 899.373889498819                                  1237.2161270560355                                1242.6280188165924                                1241.5337439384075                                1240.2938634877983                                1238.6430685244254
55                                                745.8870988252352                                 958.61972605024                                   1262.233337020486                                 1266.9460794207735                                1265.5346269439233                                1264.2021138217538                                1262.4679548023937
60                                                777.6410255563316                                 1014.1010861121828                                1290.0570411896715                                1294.1513583634642                                1292.4144010775558                                1290.979857799619                                 1289.1508308864481
65                                                828.4076062061087                                 1066.716949705015                                 1319.889318168346                                 1323.3228378354347                                1321.2239984608527                                1319.6757728723346                                1317.7414920055917
70                                                902.3213074447868                                 1117.1339254251347                                1350.3000189526979                                1352.9349809820728                                1350.4279705177623                                1348.7569023586425                                1346.7112013984715
75                                                983.3621306915667                                 1165.8694217226648                                1377.9730424878398                                1379.5835124504197                                1376.6376934739205                                1374.846445561188                                 1372.6957967037297
78.64664813608856                                 1038.7697567385421                                1200.2167247983252                                1393.6448777686273                                1394.415398568769                                 1391.1659640027924                                1389.300402999892                                 1387.0883849613492
