% Model:              batchmodel_BILLETTA_r_0.0335556_COIL_kr_1.9397_COIL_kw_5.8583_FUNZ_freq_4639.7_FUNZ_I_eff_61.5962.mph
% Version:            COMSOL 5.6.0.280
% Date:               Jan 27 2022, 19:00
% Table:              Tabella delle sonde 1 - 
% Tempo (s)                                       Temperatura (degC), Punto: (0, 0.5)               Temperatura (degC), Punto: (0.5*BILLETTA_r, 0.5)  Temperatura (degC), Punto: (BILLETTA_r-10*FUNZ_depth_billetta, 0.5)Temperatura (degC), Punto: (BILLETTA_r-5*FUNZ_depth_billetta, 0.5)Temperatura (degC), Punto: (BILLETTA_r-2*FUNZ_depth_billetta, 0.5)Temperatura (degC), Punto: (BILLETTA_r-FUNZ_depth_billetta, 0.5)Temperatura (degC), Punto: (BILLETTA_r-0.01[mm], 0.5)
0                                                 20                                                19.999999999999886                                20.000000000012562                                20.00005160381403                                 20.10664671417362                                 20.253391753985852                                20.412421414374876
5                                                 24.75033660441494                                 53.17283540186719                                 260.49623850248463                                308.9700502035379                                 339.2849042446427                                 346.21371265297796                                348.93831013721035
10                                                63.85645957924697                                 145.79041720617442                                493.2042013690833                                 567.8328377789093                                 608.8092169137873                                 617.0551315889917                                 620.0669635856259
15                                                139.55056753611757                                257.4350966665038                                 699.8272799886173                                 798.563141733728                                  850.6235405534738                                 860.9392286473186                                 864.3098593444391
20                                                232.23258239681957                                368.2674679370697                                 889.1671826356913                                 1007.6286182031273                                1053.7989831571995                                1060.7214336186885                                1062.2220408082148
25                                                325.0460401617373                                 468.16236651661586                                995.0753401941034                                 1066.30832814431                                  1085.5617117182178                                1087.4896178108238                                1087.1036576952247
30                                                410.44553849147144                                551.8931526409202                                 1034.3017660232263                                1080.0264015190228                                1091.5158640702116                                1092.3237171416745                                1091.5520273586117
35                                                484.6367573097791                                 619.8184443660003                                 1060.0247126824033                                1091.390876992084                                 1098.4213221202408                                1098.5492583545088                                1097.5308458585841
40                                                548.8403137873466                                 674.9886513142561                                 1076.9881257632055                                1100.0925840791679                                1104.604635783723                                 1104.344139326628                                 1103.179454495003
45                                                603.5132850223075                                 719.7083694178207                                 1089.3725636463564                                1107.0677943018563                                1109.9535844595907                                1109.4412559391553                                1108.1789955845052
50                                                649.7644248134767                                 761.7365282377472                                 1100.5590167449363                                1113.8858034079376                                1115.4431356198247                                1114.7217351241907                                1113.3757655417548
55                                                687.5639232276147                                 800.8660727280181                                 1110.4536750943425                                1120.5043585733033                                1121.047896864428                                 1120.1628303578068                                1118.747992495284
60                                                718.0393122225391                                 840.15170881594                                   1119.384226426118                                 1126.8538488321783                                1126.5915498888985                                1125.5738419568302                                1124.1006518377721
65                                                740.9043556767479                                 878.8179665284459                                 1127.2674836831789                                1132.9519456773469                                1132.1188549922954                                1131.0031810880623                                1129.4832526645578
70                                                766.3444655103057                                 914.8626865935147                                 1135.004651794624                                 1139.1881209292164                                1137.8682562639574                                1136.6666938933354                                1135.1034675904666
75                                                793.2131557234158                                 948.495904954027                                  1142.4932232436076                                1145.5190624783818                                1143.8138625760575                                1142.5410884916578                                1140.9389407625063
80                                                832.8042682901117                                 978.1216263674258                                 1150.2991186187842                                1152.4348979468991                                1150.418819463352                                 1149.0842848561342                                1147.4445454526658
85                                                875.7140573818839                                 1007.0394151801835                                1158.244326241695                                 1159.4972490831724                                1157.1712103587015                                1155.7746854365746                                1154.0968667577113
90                                                916.3488769989871                                 1033.4612368877229                                1167.008006082688                                 1167.5431653572055                                1164.9491732226415                                1163.4944334123347                                1161.7769193271852
95                                                956.0748932713221                                 1058.885971258966                                 1176.0986486797424                                1175.9819956008319                                1173.1368309179784                                1171.6253844245357                                1169.86752932217
100                                               991.251197597588                                  1082.1163958588713                                1186.0278118795554                                1185.3517501469314                                1182.2766733053927                                1180.7092684921963                                1178.9084710479665
105                                               1023.857168345358                                 1104.1071577826006                                1196.4306924678708                                1195.2474250198666                                1191.954446954388                                 1190.3315066050222                                1188.4862972155402
110                                               1054.7973875186121                                1125.3243521064205                                1207.0207843108828                                1205.3552435015386                                1201.852276466287                                 1200.1749605497703                                1198.2856175996662
115                                               1082.6955537662088                                1145.1288306228566                                1217.9527677983515                                1215.850485951758                                 1212.151979577944                                 1210.422406469671                                 1208.4894383545488
120                                               1108.3532151782765                                1163.8928286890737                                1229.1365581745717                                1226.6310703391969                                1222.7476669362704                                1220.9673968425973                                1218.9911780013117
125                                               1131.7703717548147                                1181.616346305073                                 1240.5721554395445                                1237.6969966638558                                1233.6393385412666                                1231.8099316685507                                1229.7908365399544
130                                               1153.4242713997296                                1198.4921460975233                                1251.9942189570684                                1248.7734017929797                                1244.5484118245176                                1242.6707788354156                                1240.6089684775502
135                                               1173.8760144283237                                1214.7468590682965                                1263.0907877663572                                1259.5371291674905                                1255.1473572867917                                1253.2216451754953                                1251.1170297745994
140                                               1192.5944975026055                                1230.165970132828                                 1274.157145086966                                 1270.2940590774892                                1265.7461943766416                                1263.773272979337                                 1261.6260001815967
145                                               1209.5797206225739                                1244.7494792911184                                1285.1932909188959                                1281.0441915229753                                1276.3449230940669                                1274.3256622469407                                1272.1358796985414
150                                               1225.2342910935822                                1258.6236192136312                                1296.08849844528                                  1291.6708950313568                                1286.8255902969436                                1284.7608342540248                                1282.5288776287607
155                                               1240.7346209223952                                1272.1572397130903                                1306.5192257057456                                1301.8333743341395                                1296.8435388198736                                1294.734057084544                                 1292.4608114698221
160                                               1255.200234670052                                 1285.07427832252                                  1316.7276248952244                                1311.7866947161874                                1306.6567243512136                                1304.503342373332                                 1302.1892816526706
165                                               1268.6311323365521                                1297.374735041919                                 1326.713696013715                                 1321.5308561775                                   1316.2651468909617                                1314.0686901203894                                1311.7142881773057
170                                               1281.1255979536181                                1309.0775606605544                                1336.4267430347395                                1331.0152157674088                                1325.6186370033838                                1323.3801449389657                                1320.98610563696
175                                               1293.6118646471823                                1320.3617339001112                                1345.3879727066792                                1339.7614815031525                                1334.2433747673458                                1331.965908470895                                 1329.5351076950528
180                                               1305.482227356733                                 1331.1100791590584                                1353.9108462429067                                1348.082786422333                                 1342.4495654058678                                1340.134862441887                                 1337.6687540762123
185                                               1316.73668608227                                  1341.3225964373964                                1361.9953636434211                                1355.979130524951                                 1350.2372089189494                                1347.887006851941                                 1345.387044780438
190                                               1327.3752408237933                                1350.999285735124                                 1369.6415249082243                                1363.4505138110057                                1357.6063053065905                                1355.2223417010578                                1352.6899798077307
195                                               1337.2194114929553                                1359.656397563856                                 1376.3563135404293                                1370.0129595724143                                1364.0798645476561                                1361.6664707535338                                1359.1057815631843
200                                               1346.36871067513                                  1367.5636491940627                                1382.4146136836475                                1375.9363117672788                                1369.923835133321                                 1367.483896320768                                 1364.8974923201704
205                                               1354.829269294477                                 1374.7376577814925                                1387.833360822281                                 1381.2371953565134                                1375.154602026591                                 1372.6909142673007                                1370.081317990967
210                                               1362.6010873509972                                1381.178423326146                                 1392.612554956329                                 1385.9156103401174                                1379.7721652274654                                1377.2875245931327                                1374.657258575573
215                                               1369.6841648446903                                1386.8859458280222                                1396.7521960857925                                1389.971556718091                                 1383.7765247359453                                1381.2737272982636                                1378.625314073989
215.2047950544898                                 1369.9595978972798                                1387.1040887903473                                1396.908117492651                                 1390.1244142814926                                1383.9274668646353                                1381.4239853498148                                1378.7748826101151
