% Model:              batchmodel_BILLETTA_r_0.0335556_COIL_kr_2.7711_COIL_kw_3.2356_FUNZ_freq_2540.9_FUNZ_I_eff_85.0125.mph
% Version:            COMSOL 5.6.0.280
% Date:               Jan 27 2022, 20:10
% Table:              Tabella delle sonde 1 - 
% Tempo (s)                                       Temperatura (degC), Punto: (0, 0.5)               Temperatura (degC), Punto: (0.5*BILLETTA_r, 0.5)  Temperatura (degC), Punto: (BILLETTA_r-10*FUNZ_depth_billetta, 0.5)Temperatura (degC), Punto: (BILLETTA_r-5*FUNZ_depth_billetta, 0.5)Temperatura (degC), Punto: (BILLETTA_r-2*FUNZ_depth_billetta, 0.5)Temperatura (degC), Punto: (BILLETTA_r-FUNZ_depth_billetta, 0.5)Temperatura (degC), Punto: (BILLETTA_r-0.01[mm], 0.5)
0                                                 20                                                20                                                20.000000000037232                                20.000169155993376                                20.10700396813087                                 20.216099707686112                                20.33581921806001
5                                                 25.188419871092833                                60.37917714845116                                 294.6214376850928                                 377.2687717794877                                 425.6059838056549                                 435.57645242373576                                439.33423950069493
10                                                73.27809745110483                                 173.77237811914995                                554.4434353041092                                 672.3570353713296                                 733.1957595547691                                 745.0188153181449                                 749.0401943623299
15                                                162.47859252744757                                300.5169457846257                                 775.3821247731686                                 950.7258105694485                                 1029.1582849923234                                1041.151499388452                                 1044.1640381146367
20                                                266.52010924209685                                420.94816993348945                                974.7110949716576                                 1095.7719863830403                                1125.483686769811                                 1128.2244147648253                                1127.5396345023164
25                                                365.4673572122924                                 524.27035658854                                   1053.03128924475                                  1118.428589004946                                 1132.2989630530737                                1132.842079022787                                 1131.4321143147858
30                                                453.5592066504339                                 608.7906190332001                                 1091.234031158242                                 1133.2620556183374                                1141.5036491775177                                1141.2658732223586                                1139.571361598376
35                                                529.1630159904065                                 677.254786980547                                  1112.9397121365168                                1139.315130234328                                 1142.6828612212926                                1141.7435874741432                                1139.8160094505774
40                                                593.8817681902531                                 734.02786342288                                   1126.8350526145828                                1145.2112183872728                                1146.5251325928816                                1145.2929582160764                                1143.257114328992
45                                                647.7729795303949                                 785.9496135822575                                 1138.1250108442691                                1151.2187445677855                                1151.1424500075227                                1149.7054728194557                                1147.5870294370047
50                                                691.0239588631061                                 839.9928324618212                                 1148.129457451355                                 1157.5243011080934                                1156.433729152253                                 1154.839631108489                                 1152.6513910250696
55                                                723.6581212182876                                 892.8684386961526                                 1157.4568614230352                                1164.1854012511462                                1162.3384491874253                                1160.6202433116564                                1158.370555249071
60                                                748.5259705810714                                 941.5438811098339                                 1166.6227833761322                                1171.3766013922827                                1168.9494278147827                                1167.1290828454685                                1164.8223865651348
65                                                775.6515622458854                                 985.3927430189525                                 1176.2166660530802                                1179.4633422034026                                1176.570111867149                                 1174.6599973112498                                1172.2964423358899
70                                                817.7008524653787                                 1025.5986894410307                                1186.6857860406662                                1188.756530049819                                 1185.4697061479937                                1183.475253040293                                 1181.0516092546059
75                                                877.5638480366575                                 1062.509703793503                                 1198.410528038371                                 1199.5386093289403                                1195.9032789260377                                1193.8254251558546                                1191.3361332416653
80                                                937.3505159961477                                 1095.978934043398                                 1211.7716381598975                                1212.0780625593898                                1208.1138242718393                                1205.9512331783417                                1203.3911560940937
85                                                997.4745917718045                                 1125.9367142977808                                1226.832765573773                                 1226.4470103042195                                1222.1737374015916                                1219.924606581953                                 1217.2879917447735
90                                                1043.3476834604207                                1153.320085801748                                 1243.9285396803284                                1242.8732721380102                                1238.270984147231                                 1235.9256488069832                                1233.2025276266704
95                                                1089.2207751490369                                1180.7034573057153                                1261.0243137868838                                1259.2995339718013                                1254.368230892871                                 1251.926691032013                                 1249.1170635085673
100                                               1124.4082667215234                                1205.8720252081048                                1278.6051810879949                                1276.1897693442552                                1270.9125748421088                                1268.369112508798                                 1265.4673575807096
105                                               1159.3158024011777                                1230.9825666718307                                1296.1987575207336                                1293.0921605268522                                1287.4686324522972                                1284.8230978398497                                1281.8290682389006
110                                               1189.2287068071178                                1254.2434092592748                                1313.4055858347688                                1309.6524597609064                                1303.693992519809                                 1300.9474573414473                                1297.8608001241805
115                                               1218.4287489259395                                1277.240252264135                                 1330.5572152495602                                1326.1639336792423                                1319.8721535462496                                1317.024770763005                                 1313.8454355553154
120                                               1241.4677895356322                                1295.8629984750678                                1343.751691336785                                 1338.896371137871                                 1332.3651415901486                                1329.4418034234345                                1326.189919438315
125                                               1262.725651352141                                 1313.2211696916374                                1355.8021330364195                                1350.5362687568781                                1343.7927262323442                                1340.8006291577399                                1337.4820158593238
130                                               1283.9835131686505                                1330.5793409082075                                1367.852574736054                                 1362.1761663758853                                1355.2203108745407                                1352.1594548920457                                1348.7741122803332
135                                               1305.2413749851598                                1347.9375121247772                                1379.903016435689                                 1373.8160639948924                                1366.6478955167368                                1363.518280626351                                 1360.0662087013425
137.1150300008188                                 1314.233578084195                                 1355.2801227012565                                1385.0004255792578                                1378.7398105290245                                1371.4818323877648                                1368.3231320667774                                1364.8428332418566
