% Model:              batchmodel_COIL_N_18_COIL_kr_3_COIL_kh_1_COIL_kturn_1.1_FUNZ_freq_10000_FUNZ_I_eff_2500.mph
% Version:            COMSOL 5.6.0.280
% Date:               Feb 2 2022, 02:40
% Table:              Tabella 1 - GRIGLIA_T
% COIL_N                 COIL_kr                  COIL_kh                  COIL_kturn               FUNZ_freq                FUNZ_I_eff               Time (s)                 Temperatura (degC), Punto: (0, 0)Temperatura (degC), Punto: (15, 0)Temperatura (degC), Punto: (28.051, 0)Temperatura (degC), Punto: (29.025, 0)Temperatura (degC), Punto: (29.61, 0)Temperatura (degC), Punto: (29.805, 0)Temperatura (degC), Punto: (0, 62.5)Temperatura (degC), Punto: (15, 62.5)Temperatura (degC), Punto: (28.051, 62.5)Temperatura (degC), Punto: (29.025, 62.5)Temperatura (degC), Punto: (29.61, 62.5)Temperatura (degC), Punto: (29.805, 62.5)Temperatura (degC), Punto: (0, 125)Temperatura (degC), Punto: (15, 125)Temperatura (degC), Punto: (28.051, 125)Temperatura (degC), Punto: (29.025, 125)Temperatura (degC), Punto: (29.61, 125)Temperatura (degC), Punto: (29.805, 125)Temperatura (degC), Punto: (0, 187.5)Temperatura (degC), Punto: (15, 187.5)Temperatura (degC), Punto: (28.051, 187.5)Temperatura (degC), Punto: (29.025, 187.5)Temperatura (degC), Punto: (29.61, 187.5)Temperatura (degC), Punto: (29.805, 187.5)Temperatura (degC), Punto: (0, 250)Temperatura (degC), Punto: (15, 250)Temperatura (degC), Punto: (28.051, 250)Temperatura (degC), Punto: (29.025, 250)Temperatura (degC), Punto: (29.61, 250)Temperatura (degC), Punto: (29.805, 250)Temperatura (degC), Punto: (0, 312.5)Temperatura (degC), Punto: (15, 312.5)Temperatura (degC), Punto: (28.051, 312.5)Temperatura (degC), Punto: (29.025, 312.5)Temperatura (degC), Punto: (29.61, 312.5)Temperatura (degC), Punto: (29.805, 312.5)Temperatura (degC), Punto: (0, 375)Temperatura (degC), Punto: (15, 375)Temperatura (degC), Punto: (28.051, 375)Temperatura (degC), Punto: (29.025, 375)Temperatura (degC), Punto: (29.61, 375)Temperatura (degC), Punto: (29.805, 375)Temperatura (degC), Punto: (0, 437.5)Temperatura (degC), Punto: (15, 437.5)Temperatura (degC), Punto: (28.051, 437.5)Temperatura (degC), Punto: (29.025, 437.5)Temperatura (degC), Punto: (29.61, 437.5)Temperatura (degC), Punto: (29.805, 437.5)Temperatura (degC), Punto: (0, 468.75)Temperatura (degC), Punto: (15, 468.75)Temperatura (degC), Punto: (28.051, 468.75)Temperatura (degC), Punto: (29.025, 468.75)Temperatura (degC), Punto: (29.61, 468.75)Temperatura (degC), Punto: (29.805, 468.75)Temperatura (degC), Punto: (0, 492.19)Temperatura (degC), Punto: (15, 492.19)Temperatura (degC), Punto: (28.051, 492.19)Temperatura (degC), Punto: (29.025, 492.19)Temperatura (degC), Punto: (29.61, 492.19)Temperatura (degC), Punto: (29.805, 492.19)
18.000                   3.0000                   1.0000                   1.1000                   10000                    2500.0                   0.0000                   20.000                   20.000                   20.000                   20.005                   20.485                   20.922                   20.000                   20.000                   20.000                   20.005                   20.485                   20.921                   20.000                   20.000                   20.000                   20.005                   20.477                   20.911                   20.000                   20.000                   20.000                   20.002                   20.346                   20.715                   20.000                   20.000                   20.000                   20.000                   20.059                   20.213                   20.000                   20.000                   20.000                   20.000                   20.005                   20.044                   20.000                   20.000                   20.000                   20.000                   20.001                   20.011                   20.000                   20.000                   20.000                   20.000                   20.000                   20.004                   20.000                   20.000                   20.000                   20.000                   20.000                   20.002                   20.000                   20.000                   20.000                   20.000                   20.000                   20.001
18.000                   3.0000                   1.0000                   1.1000                   10000                    2500.0                   5.0000                   44.288                   148.07                   851.49                   970.32                   1017.4                   1025.2                   44.040                   147.95                   842.47                   963.12                   1012.2                   1020.2                   43.666                   146.81                   1090.5                   1218.9                   1248.8                   1251.9                   38.761                   122.57                   683.43                   796.23                   858.33                   870.01                   25.860                   52.400                   195.49                   214.77                   226.80                   229.93                   21.723                   29.278                   62.799                   66.322                   68.487                   69.181                   21.152                   26.221                   44.198                   45.433                   46.127                   46.347                   20.613                   23.166                   31.443                   31.912                   32.166                   32.246                   20.531                   22.800                   29.945                   30.260                   30.415                   30.462                   20.813                   24.005                   32.800                   33.069                   33.178                   33.205
18.000                   3.0000                   1.0000                   1.1000                   10000                    2500.0                   10.000                   181.38                   353.02                   1093.8                   1139.9                   1150.6                   1151.3                   181.01                   350.61                   1030.0                   1082.1                   1096.6                   1098.1                   180.09                   355.60                   1177.8                   1211.4                   1218.4                   1218.5                   154.72                   302.51                   1010.2                   1091.0                   1115.6                   1118.8                   70.405                   126.49                   315.42                   338.54                   352.59                   356.01                   33.093                   45.844                   80.839                   84.406                   86.608                   87.313                   27.412                   33.331                   45.860                   46.920                   47.560                   47.772                   23.931                   26.745                   31.951                   32.336                   32.565                   32.641                   23.206                   25.377                   28.948                   29.175                   29.307                   29.350                   24.097                   26.668                   30.092                   30.231                   30.304                   30.327
18.000                   3.0000                   1.0000                   1.1000                   10000                    2500.0                   15.000                   327.81                   504.65                   1159.6                   1180.5                   1184.4                   1184.2                   327.40                   502.46                   1150.2                   1172.5                   1176.8                   1176.6                   326.46                   506.28                   1171.5                   1190.9                   1194.3                   1194.0                   289.32                   452.49                   1150.1                   1179.1                   1185.1                   1185.2                   138.58                   207.98                   425.39                   451.60                   467.13                   470.71                   49.078                   63.471                   100.62                   104.36                   106.68                   107.41                   33.593                   38.643                   49.952                   50.998                   51.639                   51.852                   27.022                   29.166                   33.477                   33.848                   34.073                   34.148                   25.438                   26.901                   29.565                   29.777                   29.905                   29.947                   26.216                   27.639                   29.661                   29.777                   29.844                   29.865
18.000                   3.0000                   1.0000                   1.1000                   10000                    2500.0                   20.000                   443.97                   613.06                   1191.5                   1205.2                   1207.1                   1206.6                   443.62                   611.77                   1188.8                   1202.8                   1204.8                   1204.2                   442.41                   612.98                   1191.9                   1205.4                   1207.2                   1206.6                   402.76                   563.65                   1151.0                   1168.4                   1171.4                   1171.1                   210.56                   285.81                   519.35                   547.40                   563.72                   567.33                   67.546                   82.926                   122.04                   125.97                   128.40                   129.17                   39.125                   43.798                   54.798                   55.850                   56.497                   56.712                   29.477                   31.290                   35.282                   35.649                   35.874                   35.949                   27.054                   28.192                   30.539                   30.746                   30.873                   30.915                   27.394                   28.335                   29.888                   29.998                   30.063                   30.084
18.000                   3.0000                   1.0000                   1.1000                   10000                    2500.0                   25.000                   539.91                   700.62                   1223.2                   1233.3                   1234.2                   1233.5                   539.64                   700.18                   1222.2                   1232.4                   1233.3                   1232.6                   538.03                   699.09                   1219.5                   1229.6                   1230.4                   1229.7                   497.50                   650.54                   1160.2                   1172.2                   1173.7                   1173.1                   279.24                   357.59                   598.94                   627.97                   644.74                   648.35                   87.482                   103.64                   144.71                   148.84                   151.39                   152.19                   44.537                   49.058                   59.997                   61.061                   61.715                   61.932                   31.681                   33.328                   37.176                   37.543                   37.768                   37.844                   28.447                   29.423                   31.621                   31.827                   31.953                   31.996                   28.299                   29.012                   30.352                   30.459                   30.523                   30.544
18.000                   3.0000                   1.0000                   1.1000                   10000                    2500.0                   30.000                   615.78                   782.51                   1262.2                   1270.8                   1271.1                   1270.3                   615.58                   782.65                   1262.0                   1270.6                   1270.9                   1270.0                   613.64                   779.28                   1256.0                   1264.4                   1264.8                   1263.9                   573.21                   718.92                   1177.0                   1186.0                   1186.6                   1185.9                   341.13                   420.22                   661.24                   690.86                   707.89                   711.48                   108.80                   125.68                   168.71                   173.04                   175.72                   176.55                   50.069                   54.565                   65.574                   66.650                   67.313                   67.533                   33.752                   35.332                   39.132                   39.500                   39.727                   39.803                   29.726                   30.634                   32.775                   32.981                   33.107                   33.149                   29.113                   29.734                   30.991                   31.097                   31.161                   31.182
18.000                   3.0000                   1.0000                   1.1000                   10000                    2500.0                   35.000                   677.94                   873.79                   1308.1                   1315.7                   1315.6                   1314.6                   677.78                   873.61                   1307.9                   1315.5                   1315.4                   1314.4                   675.61                   867.31                   1299.0                   1306.5                   1306.4                   1305.4                   635.64                   780.25                   1196.3                   1203.4                   1203.4                   1202.6                   397.19                   475.49                   711.75                   741.23                   758.37                   761.93                   130.95                   148.56                   193.49                   198.02                   200.81                   201.67                   55.783                   60.302                   71.428                   72.519                   73.190                   73.414                   35.783                   37.336                   41.124                   41.494                   41.722                   41.798                   30.973                   31.850                   33.966                   34.172                   34.299                   34.341                   29.929                   30.508                   31.727                   31.833                   31.896                   31.917
18.000                   3.0000                   1.0000                   1.1000                   10000                    2500.0                   40.000                   724.86                   967.01                   1356.1                   1362.3                   1361.6                   1360.5                   724.09                   966.85                   1355.9                   1362.2                   1361.4                   1360.3                   721.31                   958.55                   1347.4                   1353.8                   1353.1                   1352.0                   683.56                   847.57                   1220.1                   1226.0                   1225.6                   1224.7                   446.25                   522.94                   754.09                   784.63                   802.03                   805.55                   153.75                   172.01                   218.72                   223.44                   226.36                   227.25                   61.789                   66.357                   77.624                   78.729                   79.410                   79.636                   37.819                   39.364                   43.159                   43.530                   43.759                   43.835                   32.222                   33.087                   35.195                   35.401                   35.528                   35.570                   30.788                   31.349                   32.552                   32.657                   32.721                   32.742
18.000                   3.0000                   1.0000                   1.1000                   10000                    2500.0                   45.000                   798.94                   1053.5                   1391.2                   1395.8                   1394.5                   1393.2                   798.74                   1053.4                   1391.0                   1395.6                   1394.3                   1393.0                   792.26                   1044.0                   1384.2                   1389.0                   1387.7                   1386.5                   723.71                   914.66                   1247.2                   1252.1                   1251.4                   1250.4                   491.19                   565.64                   794.06                   824.86                   841.98                   845.37                   176.71                   195.59                   244.06                   248.98                   252.01                   252.93                   68.014                   72.637                   84.054                   85.174                   85.864                   86.093                   39.876                   41.419                   45.225                   45.598                   45.828                   45.905                   33.486                   34.343                   36.449                   36.655                   36.782                   36.825                   31.685                   32.235                   33.428                   33.533                   33.596                   33.618
18.000                   3.0000                   1.0000                   1.1000                   10000                    2500.0                   50.000                   893.94                   1131.6                   1416.9                   1420.1                   1418.3                   1416.9                   894.58                   1131.7                   1416.8                   1420.0                   1418.2                   1416.7                   883.95                   1121.9                   1411.4                   1414.6                   1412.8                   1411.5                   768.46                   980.26                   1277.0                   1281.2                   1280.1                   1279.0                   532.29                   604.04                   831.09                   861.28                   877.67                   880.86                   199.73                   219.18                   269.37                   274.49                   277.64                   278.58                   74.457                   79.139                   90.710                   91.846                   92.545                   92.777                   41.959                   43.505                   47.325                   47.701                   47.932                   48.009                   34.768                   35.622                   37.728                   37.934                   38.062                   38.104                   32.620                   33.165                   34.352                   34.456                   34.520                   34.541
18.000                   3.0000                   1.0000                   1.1000                   10000                    2500.0                   55.000                   999.91                   1200.4                   1438.4                   1441.0                   1438.9                   1437.4                   1000.5                   1200.4                   1438.2                   1440.8                   1438.7                   1437.3                   988.51                   1190.8                   1432.3                   1434.7                   1432.6                   1431.1                   832.01                   1043.3                   1308.9                   1312.3                   1310.9                   1309.7                   569.81                   638.52                   864.27                   892.94                   908.35                   911.31                   222.66                   242.68                   294.53                   299.83                   303.10                   304.07                   81.115                   85.859                   97.585                   98.738                   99.447                   99.682                   44.074                   45.626                   49.463                   49.840                   50.072                   50.150                   36.071                   36.925                   39.033                   39.240                   39.367                   39.410                   33.593                   34.136                   35.320                   35.424                   35.487                   35.508
18.000                   3.0000                   1.0000                   1.1000                   10000                    2500.0                   60.000                   1090.9                   1257.0                   1476.7                   1479.9                   1477.7                   1476.2                   1091.3                   1256.9                   1476.4                   1479.6                   1477.4                   1475.9                   1079.2                   1247.2                   1461.7                   1464.5                   1462.3                   1460.8                   914.67                   1100.9                   1340.1                   1342.7                   1340.8                   1339.5                   602.24                   668.22                   890.73                   916.94                   930.86                   933.51                   245.28                   265.82                   319.14                   324.60                   327.97                   328.95                   88.080                   92.884                   104.76                   105.93                   106.65                   106.89                   46.248                   47.807                   51.663                   52.042                   52.275                   52.353                   37.414                   38.269                   40.380                   40.587                   40.715                   40.758                   34.624                   35.165                   36.348                   36.452                   36.515                   36.536
18.000                   3.0000                   1.0000                   1.1000                   10000                    2500.0                   65.000                   1170.4                   1307.0                   1518.2                   1521.0                   1518.5                   1516.8                   1170.7                   1306.8                   1517.8                   1520.6                   1518.0                   1516.3                   1158.6                   1296.9                   1499.4                   1502.0                   1499.6                   1497.9                   993.17                   1154.2                   1367.3                   1369.1                   1366.9                   1365.5                   631.82                   695.29                   914.03                   937.52                   949.89                   952.24                   267.58                   288.61                   343.34                   348.94                   352.40                   353.40                   95.221                   100.08                   112.13                   113.31                   114.04                   114.28                   48.466                   50.032                   53.907                   54.288                   54.522                   54.601                   38.784                   39.641                   41.755                   41.963                   42.091                   42.134                   35.691                   36.231                   37.412                   37.515                   37.579                   37.600
18.000                   3.0000                   1.0000                   1.1000                   10000                    2500.0                   70.000                   1238.7                   1350.1                   1560.5                   1562.3                   1559.1                   1557.2                   1238.8                   1350.0                   1560.0                   1561.8                   1558.7                   1556.8                   1227.0                   1340.1                   1540.8                   1542.7                   1539.8                   1537.9                   1065.4                   1202.9                   1390.0                   1390.9                   1388.3                   1386.9                   658.62                   720.10                   934.78                   955.41                   966.18                   968.20                   289.52                   311.00                   367.04                   372.79                   376.34                   377.35                   102.53                   107.46                   119.67                   120.87                   121.61                   121.86                   50.730                   52.304                   56.199                   56.581                   56.817                   56.896                   40.185                   41.043                   43.161                   43.369                   43.497                   43.540                   36.793                   37.333                   38.512                   38.616                   38.679                   38.700
18.000                   3.0000                   1.0000                   1.1000                   10000                    2500.0                   75.000                   1295.4                   1386.4                   1601.1                   1601.8                   1597.9                   1595.8                   1295.5                   1386.5                   1600.6                   1601.3                   1597.4                   1595.3                   1283.9                   1376.8                   1581.3                   1582.2                   1578.6                   1576.5                   1129.1                   1246.2                   1407.6                   1407.7                   1404.9                   1403.3                   682.66                   743.11                   953.68                   971.46                   980.57                   982.25                   311.00                   332.90                   390.16                   396.05                   399.68                   400.70                   110.03                   115.02                   127.40                   128.62                   129.37                   129.62                   53.049                   54.631                   58.544                   58.929                   59.166                   59.245                   41.619                   42.479                   44.601                   44.809                   44.938                   44.981                   37.934                   38.473                   39.651                   39.754                   39.817                   39.838