% Model:              batchmodel_COIL_N_18_COIL_kr_2.25_COIL_kh_1_COIL_kturn_1.1_FUNZ_freq_10000_FUNZ_I_eff_4000.mph
% Version:            COMSOL 5.6.0.280
% Date:               Feb 1 2022, 19:45
% Table:              Tabella 1 - GRIGLIA_T
% COIL_N                 COIL_kr                  COIL_kh                  COIL_kturn               FUNZ_freq                FUNZ_I_eff               Time (s)                 Temperatura (degC), Punto: (0, 0)Temperatura (degC), Punto: (15, 0)Temperatura (degC), Punto: (28.051, 0)Temperatura (degC), Punto: (29.025, 0)Temperatura (degC), Punto: (29.61, 0)Temperatura (degC), Punto: (29.805, 0)Temperatura (degC), Punto: (0, 62.5)Temperatura (degC), Punto: (15, 62.5)Temperatura (degC), Punto: (28.051, 62.5)Temperatura (degC), Punto: (29.025, 62.5)Temperatura (degC), Punto: (29.61, 62.5)Temperatura (degC), Punto: (29.805, 62.5)Temperatura (degC), Punto: (0, 125)Temperatura (degC), Punto: (15, 125)Temperatura (degC), Punto: (28.051, 125)Temperatura (degC), Punto: (29.025, 125)Temperatura (degC), Punto: (29.61, 125)Temperatura (degC), Punto: (29.805, 125)Temperatura (degC), Punto: (0, 187.5)Temperatura (degC), Punto: (15, 187.5)Temperatura (degC), Punto: (28.051, 187.5)Temperatura (degC), Punto: (29.025, 187.5)Temperatura (degC), Punto: (29.61, 187.5)Temperatura (degC), Punto: (29.805, 187.5)Temperatura (degC), Punto: (0, 250)Temperatura (degC), Punto: (15, 250)Temperatura (degC), Punto: (28.051, 250)Temperatura (degC), Punto: (29.025, 250)Temperatura (degC), Punto: (29.61, 250)Temperatura (degC), Punto: (29.805, 250)Temperatura (degC), Punto: (0, 312.5)Temperatura (degC), Punto: (15, 312.5)Temperatura (degC), Punto: (28.051, 312.5)Temperatura (degC), Punto: (29.025, 312.5)Temperatura (degC), Punto: (29.61, 312.5)Temperatura (degC), Punto: (29.805, 312.5)Temperatura (degC), Punto: (0, 375)Temperatura (degC), Punto: (15, 375)Temperatura (degC), Punto: (28.051, 375)Temperatura (degC), Punto: (29.025, 375)Temperatura (degC), Punto: (29.61, 375)Temperatura (degC), Punto: (29.805, 375)Temperatura (degC), Punto: (0, 437.5)Temperatura (degC), Punto: (15, 437.5)Temperatura (degC), Punto: (28.051, 437.5)Temperatura (degC), Punto: (29.025, 437.5)Temperatura (degC), Punto: (29.61, 437.5)Temperatura (degC), Punto: (29.805, 437.5)Temperatura (degC), Punto: (0, 468.75)Temperatura (degC), Punto: (15, 468.75)Temperatura (degC), Punto: (28.051, 468.75)Temperatura (degC), Punto: (29.025, 468.75)Temperatura (degC), Punto: (29.61, 468.75)Temperatura (degC), Punto: (29.805, 468.75)Temperatura (degC), Punto: (0, 492.19)Temperatura (degC), Punto: (15, 492.19)Temperatura (degC), Punto: (28.051, 492.19)Temperatura (degC), Punto: (29.025, 492.19)Temperatura (degC), Punto: (29.61, 492.19)Temperatura (degC), Punto: (29.805, 492.19)
18.000                   2.2500                   1.0000                   1.1000                   10000                    4000.0                   0.0000                   20.000                   20.000                   20.000                   20.094                   21.161                   21.838                   20.000                   20.000                   20.000                   20.094                   21.161                   21.837                   20.000                   20.000                   20.000                   20.093                   21.159                   21.835                   20.000                   20.000                   20.000                   20.050                   20.931                   21.536                   20.000                   20.000                   20.000                   20.000                   20.088                   20.267                   20.000                   20.000                   20.000                   20.000                   20.004                   20.040                   20.000                   20.000                   20.000                   20.000                   20.001                   20.009                   20.000                   20.000                   20.000                   20.000                   20.000                   20.003                   20.000                   20.000                   20.000                   20.000                   20.000                   20.001                   20.000                   20.000                   20.000                   20.000                   20.000                   20.001
18.000                   2.2500                   1.0000                   1.1000                   10000                    4000.0                   5.0000                   62.576                   219.17                   1333.4                   1378.6                   1388.3                   1388.5                   62.298                   219.45                   1334.2                   1379.3                   1388.9                   1389.2                   62.383                   219.40                   1332.7                   1378.0                   1387.7                   1388.0                   56.054                   195.92                   1290.3                   1346.2                   1358.8                   1359.6                   28.219                   62.152                   245.15                   271.21                   287.31                   291.26                   21.822                   28.094                   53.976                   57.001                   58.890                   59.505                   21.220                   24.690                   34.489                   35.347                   35.864                   36.036                   20.702                   22.556                   26.910                   27.212                   27.387                   27.444                   20.819                   22.882                   27.003                   27.205                   27.312                   27.346                   21.487                   23.801                   27.616                   27.750                   27.814                   27.833
18.000                   2.2500                   1.0000                   1.1000                   10000                    4000.0                   10.000                   240.10                   473.29                   1420.9                   1441.0                   1444.5                   1443.9                   239.90                   473.24                   1420.9                   1440.9                   1444.4                   1443.8                   239.91                   473.04                   1419.7                   1439.6                   1443.1                   1442.4                   219.30                   437.42                   1361.8                   1384.6                   1388.5                   1388.0                   84.545                   155.83                   401.70                   432.82                   451.18                   455.34                   31.155                   41.901                   72.787                   76.043                   78.061                   78.712                   25.175                   28.888                   37.724                   38.571                   39.091                   39.265                   22.772                   24.415                   27.709                   27.991                   28.162                   28.218                   22.930                   24.385                   26.747                   26.913                   27.011                   27.044                   23.569                   24.970                   26.835                   26.930                   26.984                   27.001
18.000                   2.2500                   1.0000                   1.1000                   10000                    4000.0                   15.000                   412.06                   665.75                   1544.8                   1568.3                   1572.0                   1571.1                   411.84                   667.89                   1545.5                   1568.8                   1572.5                   1571.6                   411.76                   667.34                   1543.4                   1566.7                   1570.4                   1569.5                   382.50                   614.03                   1410.4                   1425.7                   1427.7                   1426.9                   166.84                   250.66                   519.18                   552.25                   571.25                   575.38                   45.697                   58.628                   92.739                   96.204                   98.344                   99.030                   29.333                   32.946                   41.753                   42.613                   43.142                   43.319                   24.547                   25.915                   28.945                   29.226                   29.397                   29.455                   24.346                   25.337                   27.244                   27.404                   27.502                   27.534                   24.743                   25.582                   26.895                   26.983                   27.035                   27.052
18.000                   2.2500                   1.0000                   1.1000                   10000                    4000.0                   20.000                   552.99                   871.70                   1712.0                   1732.9                   1734.4                   1732.5                   552.81                   871.54                   1712.2                   1733.0                   1734.3                   1732.5                   552.70                   871.51                   1709.9                   1730.7                   1732.1                   1730.2                   514.35                   766.40                   1485.7                   1502.7                   1504.8                   1503.9                   246.78                   334.06                   606.53                   639.80                   658.82                   662.85                   63.404                   77.690                   114.15                   117.81                   120.07                   120.78                   33.595                   37.207                   46.096                   46.967                   47.504                   47.683                   26.124                   27.377                   30.316                   30.596                   30.769                   30.826                   25.394                   26.194                   27.927                   28.086                   28.183                   28.216                   25.511                   26.118                   27.217                   27.302                   27.353                   27.370
18.000                   2.2500                   1.0000                   1.1000                   10000                    4000.0                   25.000                   669.39                   1092.5                   1869.7                   1886.0                   1884.2                   1881.3                   668.36                   1094.4                   1871.5                   1887.7                   1885.9                   1882.9                   668.13                   1092.9                   1868.5                   1884.8                   1882.9                   1880.0                   621.84                   932.06                   1597.6                   1613.5                   1614.4                   1612.9                   318.42                   405.52                   671.90                   705.09                   724.00                   727.94                   83.352                   98.559                   136.99                   140.83                   143.20                   143.95                   38.056                   41.702                   50.694                   51.576                   52.118                   52.299                   27.644                   28.852                   31.759                   32.040                   32.213                   32.271                   26.308                   27.029                   28.693                   28.851                   28.948                   28.980                   26.145                   26.656                   27.668                   27.752                   27.803                   27.819
18.000                   2.2500                   1.0000                   1.1000                   10000                    4000.0                   30.000                   804.98                   1275.0                   2007.5                   2018.3                   2012.9                   2008.7                   804.90                   1280.2                   2010.2                   2020.8                   2015.3                   2011.1                   804.15                   1278.6                   2006.6                   2017.2                   2011.8                   2007.7                   712.36                   1092.8                   1703.9                   1717.0                   1716.1                   1713.9                   382.56                   467.82                   724.02                   756.61                   775.35                   779.18                   104.58                   120.52                   160.78                   164.79                   167.27                   168.05                   42.724                   46.413                   55.510                   56.402                   56.951                   57.134                   29.161                   30.350                   33.247                   33.529                   33.702                   33.761                   27.186                   27.869                   29.500                   29.658                   29.755                   29.787                   26.754                   27.218                   28.187                   28.270                   28.320                   28.337
18.000                   2.2500                   1.0000                   1.1000                   10000                    4000.0                   35.000                   1023.2                   1428.7                   2130.9                   2135.8                   2126.7                   2121.3                   1028.6                   1437.9                   2133.9                   2138.6                   2129.4                   2123.9                   1026.7                   1437.8                   2130.1                   2134.9                   2125.8                   2120.4                   812.10                   1234.2                   1802.7                   1812.6                   1809.7                   1806.9                   441.13                   523.80                   769.77                   802.71                   821.22                   824.90                   126.52                   143.14                   185.12                   189.31                   191.89                   192.69                   47.563                   51.299                   60.504                   61.406                   61.962                   62.147                   30.689                   31.870                   34.767                   35.050                   35.224                   35.282                   28.057                   28.720                   30.334                   30.492                   30.589                   30.621                   27.363                   27.802                   28.748                   28.831                   28.881                   28.898
18.000                   2.2500                   1.0000                   1.1000                   10000                    4000.0                   40.000                   1219.6                   1590.0                   2236.7                   2235.8                   2223.1                   2216.4                   1215.8                   1594.6                   2239.5                   2238.4                   2225.6                   2218.9                   1220.3                   1592.9                   2235.6                   2234.6                   2221.9                   2215.2                   994.82                   1346.0                   1889.7                   1896.3                   1891.3                   1887.8                   492.16                   571.64                   810.90                   842.48                   859.66                   863.03                   149.14                   166.35                   209.83                   214.18                   216.86                   217.68                   52.688                   56.472                   65.790                   66.703                   67.264                   67.451                   32.249                   33.430                   36.334                   36.618                   36.793                   36.852                   28.940                   29.596                   31.205                   31.363                   31.460                   31.493                   27.995                   28.425                   29.362                   29.444                   29.494                   29.511
18.000                   2.2500                   1.0000                   1.1000                   10000                    4000.0                   45.000                   1348.9                   1742.5                   2330.2                   2323.6                   2307.4                   2299.5                   1342.5                   1743.5                   2332.5                   2325.7                   2309.4                   2301.5                   1344.0                   1741.0                   2328.3                   2321.6                   2305.5                   2297.6                   1160.6                   1447.8                   1968.5                   1971.7                   1964.6                   1960.4                   537.72                   613.72                   848.04                   877.01                   892.59                   895.62                   171.99                   189.70                   234.59                   239.10                   241.88                   242.73                   58.072                   61.905                   71.339                   72.263                   72.831                   73.020                   33.845                   35.029                   37.943                   38.229                   38.404                   38.463                   29.845                   30.499                   32.107                   32.264                   32.362                   32.394                   28.656                   29.082                   30.015                   30.097                   30.147                   30.164
18.000                   2.2500                   1.0000                   1.1000                   10000                    4000.0                   50.000                   1522.0                   1885.6                   2413.5                   2401.3                   2381.7                   2372.7                   1518.9                   1885.7                   2415.1                   2402.8                   2383.2                   2374.1                   1517.5                   1882.3                   2410.6                   2398.5                   2379.0                   2370.0                   1283.8                   1554.4                   2040.2                   2040.1                   2031.0                   2026.2                   578.49                   651.48                   882.20                   907.94                   921.50                   924.10                   194.76                   212.91                   259.18                   263.84                   266.72                   267.58                   63.713                   67.596                   77.147                   78.082                   78.657                   78.848                   35.481                   36.669                   39.595                   39.881                   40.058                   40.117                   30.776                   31.429                   33.038                   33.195                   33.293                   33.325                   29.349                   29.772                   30.703                   30.785                   30.835                   30.852
18.000                   2.2500                   1.0000                   1.1000                   10000                    4000.0                   55.000                   1700.8                   2021.4                   2489.4                   2471.9                   2449.0                   2438.9                   1699.7                   2021.5                   2490.6                   2473.0                   2450.0                   2439.9                   1696.5                   2016.8                   2485.6                   2468.3                   2445.6                   2435.5                   1371.8                   1657.4                   2106.8                   2103.5                   2092.4                   2086.8                   615.66                   686.30                   914.50                   936.62                   948.07                   950.23                   217.32                   235.91                   283.49                   288.30                   291.26                   292.15                   69.560                   73.493                   83.164                   84.109                   84.691                   84.885                   37.152                   38.344                   41.282                   41.570                   41.747                   41.806                   31.730                   32.383                   33.993                   34.151                   34.248                   34.281                   30.067                   30.489                   31.418                   31.500                   31.550                   31.567
18.000                   2.2500                   1.0000                   1.1000                   10000                    4000.0                   60.000                   1846.4                   2138.3                   2551.4                   2529.1                   2503.3                   2492.2                   1846.2                   2138.7                   2552.3                   2529.9                   2504.1                   2493.0                   1840.8                   2132.6                   2547.0                   2524.9                   2499.3                   2488.3                   1482.1                   1751.5                   2163.6                   2157.1                   2144.1                   2138.0                   646.82                   717.51                   947.31                   966.44                   975.82                   977.51                   239.08                   258.06                   306.74                   311.67                   314.71                   315.61                   75.860                   79.841                   89.631                   90.588                   91.177                   91.373                   38.916                   40.114                   43.065                   43.354                   43.531                   43.591                   32.744                   33.398                   35.009                   35.168                   35.265                   35.298                   30.847                   31.268                   32.196                   32.278                   32.328                   32.344
18.000                   2.2500                   1.0000                   1.1000                   10000                    4000.0                   65.000                   1986.8                   2252.1                   2611.2                   2584.1                   2555.4                   2543.4                   1987.3                   2252.8                   2611.9                   2584.8                   2556.0                   2544.0                   1979.7                   2245.4                   2606.2                   2579.4                   2550.9                   2539.0                   1597.3                   1844.3                   2218.8                   2209.2                   2194.4                   2187.6                   677.02                   748.18                   980.28                   996.53                   1003.8                   1005.1                   260.72                   280.06                   329.81                   334.86                   337.97                   338.89                   82.232                   86.262                   96.171                   97.140                   97.737                   97.935                   40.695                   41.898                   44.862                   45.153                   45.331                   45.391                   33.768                   34.423                   36.036                   36.194                   36.292                   36.325                   31.636                   32.057                   32.983                   33.065                   33.115                   33.132
18.000                   2.2500                   1.0000                   1.1000                   10000                    4000.0                   70.000                   2106.1                   2349.5                   2660.7                   2629.4                   2598.2                   2585.3                   2107.0                   2350.3                   2661.3                   2629.9                   2598.7                   2585.8                   2097.9                   2341.7                   2655.1                   2624.2                   2593.3                   2580.5                   1698.0                   1925.9                   2266.2                   2253.8                   2237.2                   2229.9                   703.94                   782.91                   1012.2                   1026.9                   1032.5                   1033.2                   281.39                   301.04                   351.72                   356.88                   360.05                   360.98                   88.955                   93.029                   103.05                   104.04                   104.64                   104.84                   42.572                   43.780                   46.757                   47.049                   47.228                   47.288                   34.852                   35.508                   37.123                   37.281                   37.379                   37.412                   32.482                   32.903                   33.828                   33.909                   33.959                   33.976
18.000                   2.2500                   1.0000                   1.1000                   10000                    4000.0                   75.000                   2223.5                   2445.2                   2709.2                   2673.7                   2640.0                   2626.3                   2224.7                   2446.1                   2709.7                   2674.2                   2640.4                   2626.7                   2214.1                   2436.4                   2703.2                   2668.2                   2634.7                   2621.1                   1797.3                   2006.5                   2312.9                   2297.7                   2279.4                   2271.4                   730.87                   818.02                   1043.9                   1057.0                   1061.0                   1061.2                   301.95                   321.90                   373.51                   378.77                   382.01                   382.94                   95.710                   99.829                   109.97                   110.96                   111.58                   111.78                   44.458                   45.672                   48.663                   48.955                   49.136                   49.196                   35.943                   36.599                   38.216                   38.375                   38.472                   38.505                   33.333                   33.754                   34.678                   34.759                   34.809                   34.826