% Model:              batchmodel_COIL_N_18_COIL_kr_3_COIL_kh_3_COIL_kturn_1.1_FUNZ_freq_2000_FUNZ_I_eff_1000.mph
% Version:            COMSOL 5.6.0.280
% Date:               Feb 2 2022, 06:49
% Table:              Tabella 1 - GRIGLIA_T
% COIL_N                 COIL_kr                  COIL_kh                  COIL_kturn               FUNZ_freq                FUNZ_I_eff               Time (s)                 Temperatura (degC), Punto: (0, 0)Temperatura (degC), Punto: (15, 0)Temperatura (degC), Punto: (25.641, 0)Temperatura (degC), Punto: (27.821, 0)Temperatura (degC), Punto: (29.128, 0)Temperatura (degC), Punto: (29.564, 0)Temperatura (degC), Punto: (0, 62.5)Temperatura (degC), Punto: (15, 62.5)Temperatura (degC), Punto: (25.641, 62.5)Temperatura (degC), Punto: (27.821, 62.5)Temperatura (degC), Punto: (29.128, 62.5)Temperatura (degC), Punto: (29.564, 62.5)Temperatura (degC), Punto: (0, 125)Temperatura (degC), Punto: (15, 125)Temperatura (degC), Punto: (25.641, 125)Temperatura (degC), Punto: (27.821, 125)Temperatura (degC), Punto: (29.128, 125)Temperatura (degC), Punto: (29.564, 125)Temperatura (degC), Punto: (0, 187.5)Temperatura (degC), Punto: (15, 187.5)Temperatura (degC), Punto: (25.641, 187.5)Temperatura (degC), Punto: (27.821, 187.5)Temperatura (degC), Punto: (29.128, 187.5)Temperatura (degC), Punto: (29.564, 187.5)Temperatura (degC), Punto: (0, 250)Temperatura (degC), Punto: (15, 250)Temperatura (degC), Punto: (25.641, 250)Temperatura (degC), Punto: (27.821, 250)Temperatura (degC), Punto: (29.128, 250)Temperatura (degC), Punto: (29.564, 250)Temperatura (degC), Punto: (0, 312.5)Temperatura (degC), Punto: (15, 312.5)Temperatura (degC), Punto: (25.641, 312.5)Temperatura (degC), Punto: (27.821, 312.5)Temperatura (degC), Punto: (29.128, 312.5)Temperatura (degC), Punto: (29.564, 312.5)Temperatura (degC), Punto: (0, 375)Temperatura (degC), Punto: (15, 375)Temperatura (degC), Punto: (25.641, 375)Temperatura (degC), Punto: (27.821, 375)Temperatura (degC), Punto: (29.128, 375)Temperatura (degC), Punto: (29.564, 375)Temperatura (degC), Punto: (0, 437.5)Temperatura (degC), Punto: (15, 437.5)Temperatura (degC), Punto: (25.641, 437.5)Temperatura (degC), Punto: (27.821, 437.5)Temperatura (degC), Punto: (29.128, 437.5)Temperatura (degC), Punto: (29.564, 437.5)Temperatura (degC), Punto: (0, 468.75)Temperatura (degC), Punto: (15, 468.75)Temperatura (degC), Punto: (25.641, 468.75)Temperatura (degC), Punto: (27.821, 468.75)Temperatura (degC), Punto: (29.128, 468.75)Temperatura (degC), Punto: (29.564, 468.75)Temperatura (degC), Punto: (0, 492.19)Temperatura (degC), Punto: (15, 492.19)Temperatura (degC), Punto: (25.641, 492.19)Temperatura (degC), Punto: (27.821, 492.19)Temperatura (degC), Punto: (29.128, 492.19)Temperatura (degC), Punto: (29.564, 492.19)
18.000                   3.0000                   3.0000                   1.1000                   2000.0                   1000.0                   0.0000                   20.000                   20.000                   20.000                   20.000                   20.000                   20.009                   20.000                   20.000                   20.000                   20.000                   20.000                   20.009                   20.000                   20.000                   20.000                   20.000                   20.000                   20.009                   20.000                   20.000                   20.000                   20.000                   20.000                   20.009                   20.000                   20.000                   20.000                   20.000                   20.000                   20.009                   20.000                   20.000                   20.000                   20.000                   20.000                   20.009                   20.000                   20.000                   20.000                   20.000                   20.000                   20.009                   20.000                   20.000                   20.000                   20.000                   20.000                   20.009                   20.000                   20.000                   20.000                   20.000                   20.000                   20.008                   20.000                   20.000                   20.000                   20.000                   20.000                   20.005
18.000                   3.0000                   3.0000                   1.1000                   2000.0                   1000.0                   5.0000                   20.841                   22.644                   30.989                   34.203                   36.431                   37.219                   20.845                   22.654                   31.022                   34.270                   36.498                   37.290                   20.847                   22.657                   31.016                   34.258                   36.498                   37.298                   20.845                   22.654                   30.996                   34.232                   36.476                   37.276                   20.846                   22.658                   31.016                   34.246                   36.484                   37.282                   20.856                   22.683                   31.126                   34.446                   36.643                   37.417                   20.836                   22.630                   30.909                   34.074                   36.262                   37.027                   20.825                   22.614                   30.884                   34.046                   36.241                   37.011                   20.752                   22.402                   30.090                   33.051                   35.097                   35.820                   20.680                   22.009                   27.493                   29.578                   30.975                   31.485
18.000                   3.0000                   3.0000                   1.1000                   2000.0                   1000.0                   10.000                   24.362                   28.620                   40.010                   43.302                   45.509                   46.228                   24.386                   28.691                   40.311                   43.833                   46.052                   46.795                   24.408                   28.732                   40.298                   43.736                   45.982                   46.729                   24.401                   28.719                   40.279                   43.763                   46.016                   46.767                   24.422                   28.787                   40.565                   44.097                   46.328                   47.065                   24.530                   29.037                   41.333                   45.109                   47.344                   48.107                   24.296                   28.513                   39.778                   43.098                   45.195                   45.876                   24.246                   28.446                   39.624                   42.903                   45.033                   45.723                   23.870                   27.735                   38.155                   41.257                   43.273                   43.939                   23.575                   26.818                   35.110                   37.551                   38.983                   39.474
18.000                   3.0000                   3.0000                   1.1000                   2000.0                   1000.0                   15.000                   30.468                   36.013                   48.323                   51.741                   53.908                   54.603                   30.494                   36.073                   48.483                   51.990                   54.193                   54.909                   30.551                   36.161                   48.552                   52.011                   54.215                   54.931                   30.529                   36.132                   48.516                   52.002                   54.231                   54.952                   30.598                   36.281                   48.948                   52.501                   54.720                   55.435                   30.847                   36.749                   50.111                   53.948                   56.219                   56.959                   30.254                   35.719                   47.821                   51.193                   53.306                   53.976                   30.143                   35.644                   47.896                   51.302                   53.446                   54.124                   29.224                   34.201                   45.292                   48.413                   50.393                   51.033                   28.640                   33.002                   42.251                   44.764                   46.174                   46.627
18.000                   3.0000                   3.0000                   1.1000                   2000.0                   1000.0                   20.000                   37.379                   43.616                   56.214                   59.682                   61.914                   62.641                   37.401                   43.656                   56.298                   59.771                   62.009                   62.738                   37.491                   43.776                   56.438                   59.911                   62.145                   62.874                   37.451                   43.731                   56.382                   59.852                   62.090                   62.819                   37.565                   43.906                   56.665                   60.144                   62.382                   63.115                   37.926                   44.441                   57.478                   60.998                   63.254                   63.989                   37.002                   43.163                   55.676                   59.133                   61.370                   62.100                   36.790                   42.961                   55.479                   58.925                   61.144                   61.868                   35.256                   40.813                   52.155                   55.300                   57.326                   57.992                   34.066                   38.716                   47.353                   49.527                   50.891                   51.344
18.000                   3.0000                   3.0000                   1.1000                   2000.0                   1000.0                   25.000                   44.810                   51.455                   64.453                   67.989                   70.215                   70.951                   44.824                   51.471                   64.426                   67.945                   70.168                   70.896                   44.955                   51.639                   64.636                   68.163                   70.398                   71.128                   44.905                   51.591                   64.591                   68.104                   70.331                   71.059                   45.067                   51.826                   64.989                   68.553                   70.811                   71.536                   45.552                   52.513                   66.016                   69.649                   71.925                   72.649                   44.284                   50.899                   63.996                   67.607                   69.909                   70.673                   43.901                   50.510                   63.539                   67.097                   69.362                   70.114                   41.685                   47.526                   59.029                   62.205                   64.236                   64.912                   40.296                   45.263                   53.782                   55.894                   57.239                   57.682
18.000                   3.0000                   3.0000                   1.1000                   2000.0                   1000.0                   30.000                   51.971                   58.810                   71.878                   75.407                   77.625                   78.367                   51.980                   58.814                   71.803                   75.295                   77.502                   78.227                   52.122                   58.993                   72.050                   75.567                   77.794                   78.520                   52.028                   58.893                   71.931                   75.420                   77.629                   78.353                   52.220                   59.147                   72.327                   75.873                   78.118                   78.837                   52.695                   59.777                   73.165                   76.739                   78.997                   79.711                   51.441                   58.319                   71.702                   75.390                   77.745                   78.531                   50.852                   57.706                   70.973                   74.591                   76.894                   77.668                   47.903                   53.893                   65.427                   68.600                   70.638                   71.320                   45.859                   50.845                   59.041                   61.025                   62.306                   62.729
18.000                   3.0000                   3.0000                   1.1000                   2000.0                   1000.0                   35.000                   58.730                   65.440                   78.083                   81.490                   83.700                   84.441                   58.734                   65.447                   78.055                   81.407                   83.596                   84.316                   58.844                   65.584                   78.286                   81.698                   83.904                   84.622                   58.658                   65.358                   77.966                   81.330                   83.512                   84.230                   58.847                   65.570                   78.185                   81.561                   83.745                   84.456                   59.113                   65.830                   78.233                   81.485                   83.671                   84.377                   58.413                   65.266                   78.485                   82.135                   84.526                   85.318                   57.565                   64.370                   77.467                   81.065                   83.398                   84.185                   53.806                   59.742                   71.109                   74.229                   76.277                   76.960                   50.422                   54.979                   62.545                   64.302                   65.452                   65.841
18.000                   3.0000                   3.0000                   1.1000                   2000.0                   1000.0                   40.000                   65.488                   72.070                   84.289                   87.572                   89.774                   90.516                   65.489                   72.080                   84.306                   87.520                   89.690                   90.406                   65.567                   72.175                   84.523                   87.830                   90.015                   90.724                   65.287                   71.824                   84.001                   87.240                   89.395                   90.107                   65.475                   71.992                   84.043                   87.249                   89.371                   90.075                   65.531                   71.882                   83.300                   86.232                   88.345                   89.043                   65.384                   72.212                   85.269                   88.879                   91.307                   92.104                   64.278                   71.034                   83.960                   87.539                   89.902                   90.701                   59.708                   65.591                   76.792                   79.858                   81.915                   82.601                   54.985                   59.112                   66.048                   67.580                   68.599                   68.952
18.000                   3.0000                   3.0000                   1.1000                   2000.0                   1000.0                   45.000                   72.377                   78.877                   90.857                   94.077                   96.284                   97.027                   72.373                   78.888                   90.907                   94.051                   96.222                   96.936                   72.418                   78.941                   91.093                   94.348                   96.530                   97.237                   72.060                   78.489                   90.423                   93.599                   95.750                   96.461                   72.247                   78.626                   90.339                   93.451                   95.545                   96.247                   72.126                   78.223                   89.021                   91.765                   93.842                   94.538                   72.467                   79.285                   92.255                   95.844                   98.296                   99.095                   71.068                   77.791                   90.615                   94.184                   96.568                   97.374                   65.704                   71.552                   82.670                   85.711                   87.778                   88.465                   59.843                   63.665                   70.208                   71.610                   72.554                   72.887
18.000                   3.0000                   3.0000                   1.1000                   2000.0                   1000.0                   50.000                   79.787                   86.393                   98.875                   102.27                   104.54                   105.29                   79.777                   86.395                   98.907                   102.25                   104.50                   105.23                   79.784                   86.404                   98.998                   102.41                   104.67                   105.40                   79.408                   85.955                   98.394                   101.76                   103.99                   104.72                   79.598                   86.105                   98.389                   101.71                   103.91                   104.63                   79.429                   85.714                   97.361                   100.44                   102.63                   103.35                   79.994                   86.858                   100.05                   103.69                   106.12                   106.90                   78.166                   84.919                   97.915                   101.51                   103.88                   104.67                   72.074                   77.964                   89.330                   92.455                   94.538                   95.225                   65.880                   69.897                   76.989                   78.654                   79.745                   80.120
18.000                   3.0000                   3.0000                   1.1000                   2000.0                   1000.0                   55.000                   87.196                   93.909                   106.89                   110.46                   112.79                   113.55                   87.181                   93.903                   106.91                   110.45                   112.78                   113.53                   87.149                   93.868                   106.90                   110.48                   112.80                   113.55                   86.756                   93.421                   106.36                   109.92                   112.23                   112.98                   86.948                   93.585                   106.44                   109.97                   112.27                   113.02                   86.731                   93.206                   105.70                   109.12                   111.42                   112.17                   87.522                   94.432                   107.85                   111.53                   113.94                   114.71                   85.263                   92.046                   105.21                   108.84                   111.20                   111.97                   78.443                   84.375                   95.990                   99.199                   101.30                   101.98                   71.916                   76.129                   83.770                   85.697                   86.935                   87.352
18.000                   3.0000                   3.0000                   1.1000                   2000.0                   1000.0                   60.000                   94.846                   101.71                   115.22                   118.94                   121.33                   122.09                   94.821                   101.69                   115.21                   118.94                   121.33                   122.10                   94.783                   101.66                   115.18                   118.91                   121.31                   122.08                   94.372                   101.21                   114.67                   118.40                   120.79                   121.55                   94.585                   101.41                   114.88                   118.61                   121.00                   121.77                   94.407                   101.17                   114.62                   118.39                   120.79                   121.55                   95.209                   102.22                   115.94                   119.70                   122.10                   122.87                   92.523                   99.404                   112.87                   116.55                   118.89                   119.64                   85.042                   91.042                   102.89                   106.17                   108.27                   108.95                   78.498                   83.030                   91.380                   93.571                   94.933                   95.384
18.000                   3.0000                   3.0000                   1.1000                   2000.0                   1000.0                   65.000                   102.87                   109.97                   124.03                   127.89                   130.30                   131.07                   102.83                   109.93                   123.98                   127.87                   130.31                   131.09                   102.84                   109.97                   124.05                   127.94                   130.39                   131.17                   102.41                   109.50                   123.52                   127.39                   129.84                   130.62                   102.67                   109.80                   123.95                   127.86                   130.32                   131.10                   102.67                   109.88                   124.47                   128.58                   131.07                   131.85                   103.15                   110.34                   124.51                   128.39                   130.82                   131.58                   100.04                   107.13                   121.07                   124.84                   127.18                   127.93                   92.001                   98.112                   110.17                   113.48                   115.58                   116.25                   85.938                   90.985                   100.29                   102.75                   104.20                   104.68
18.000                   3.0000                   3.0000                   1.1000                   2000.0                   1000.0                   70.000                   110.90                   118.23                   132.85                   136.84                   139.28                   140.05                   110.84                   118.16                   132.75                   136.80                   139.30                   140.09                   110.90                   118.28                   132.92                   136.96                   139.47                   140.27                   110.45                   117.79                   132.36                   136.38                   138.89                   139.68                   110.76                   118.18                   133.01                   137.11                   139.63                   140.43                   110.93                   118.59                   134.31                   138.77                   141.35                   142.14                   111.09                   118.46                   133.08                   137.08                   139.53                   140.29                   107.55                   114.85                   129.28                   133.13                   135.48                   136.21                   98.961                   105.18                   117.45                   120.80                   122.89                   123.56                   93.378                   98.939                   109.21                   111.94                   113.47                   113.97
18.000                   3.0000                   3.0000                   1.1000                   2000.0                   1000.0                   75.000                   119.34                   126.90                   141.96                   146.05                   148.51                   149.28                   119.24                   126.77                   141.76                   145.91                   148.45                   149.24                   119.39                   127.03                   142.16                   146.30                   148.87                   149.68                   118.90                   126.48                   141.51                   145.65                   148.21                   149.01                   119.26                   126.96                   142.31                   146.52                   149.07                   149.88                   119.66                   127.71                   144.21                   148.86                   151.50                   152.30                   119.26                   126.82                   141.82                   145.91                   148.40                   149.16                   115.31                   122.81                   137.68                   141.62                   144.00                   144.73                   106.33                   112.69                   125.17                   128.57                   130.67                   131.33                   101.36                   107.36                   118.32                   121.19                   122.77                   123.26