% Model:              batchmodel_COIL_N_18_COIL_kr_3_COIL_kh_3_COIL_kturn_1.1_FUNZ_freq_10000_FUNZ_I_eff_2500.mph
% Version:            COMSOL 5.6.0.280
% Date:               Feb 2 2022, 08:22
% Table:              Tabella 1 - GRIGLIA_T
% COIL_N                 COIL_kr                  COIL_kh                  COIL_kturn               FUNZ_freq                FUNZ_I_eff               Time (s)                 Temperatura (degC), Punto: (0, 0)Temperatura (degC), Punto: (15, 0)Temperatura (degC), Punto: (28.051, 0)Temperatura (degC), Punto: (29.025, 0)Temperatura (degC), Punto: (29.61, 0)Temperatura (degC), Punto: (29.805, 0)Temperatura (degC), Punto: (0, 62.5)Temperatura (degC), Punto: (15, 62.5)Temperatura (degC), Punto: (28.051, 62.5)Temperatura (degC), Punto: (29.025, 62.5)Temperatura (degC), Punto: (29.61, 62.5)Temperatura (degC), Punto: (29.805, 62.5)Temperatura (degC), Punto: (0, 125)Temperatura (degC), Punto: (15, 125)Temperatura (degC), Punto: (28.051, 125)Temperatura (degC), Punto: (29.025, 125)Temperatura (degC), Punto: (29.61, 125)Temperatura (degC), Punto: (29.805, 125)Temperatura (degC), Punto: (0, 187.5)Temperatura (degC), Punto: (15, 187.5)Temperatura (degC), Punto: (28.051, 187.5)Temperatura (degC), Punto: (29.025, 187.5)Temperatura (degC), Punto: (29.61, 187.5)Temperatura (degC), Punto: (29.805, 187.5)Temperatura (degC), Punto: (0, 250)Temperatura (degC), Punto: (15, 250)Temperatura (degC), Punto: (28.051, 250)Temperatura (degC), Punto: (29.025, 250)Temperatura (degC), Punto: (29.61, 250)Temperatura (degC), Punto: (29.805, 250)Temperatura (degC), Punto: (0, 312.5)Temperatura (degC), Punto: (15, 312.5)Temperatura (degC), Punto: (28.051, 312.5)Temperatura (degC), Punto: (29.025, 312.5)Temperatura (degC), Punto: (29.61, 312.5)Temperatura (degC), Punto: (29.805, 312.5)Temperatura (degC), Punto: (0, 375)Temperatura (degC), Punto: (15, 375)Temperatura (degC), Punto: (28.051, 375)Temperatura (degC), Punto: (29.025, 375)Temperatura (degC), Punto: (29.61, 375)Temperatura (degC), Punto: (29.805, 375)Temperatura (degC), Punto: (0, 437.5)Temperatura (degC), Punto: (15, 437.5)Temperatura (degC), Punto: (28.051, 437.5)Temperatura (degC), Punto: (29.025, 437.5)Temperatura (degC), Punto: (29.61, 437.5)Temperatura (degC), Punto: (29.805, 437.5)Temperatura (degC), Punto: (0, 468.75)Temperatura (degC), Punto: (15, 468.75)Temperatura (degC), Punto: (28.051, 468.75)Temperatura (degC), Punto: (29.025, 468.75)Temperatura (degC), Punto: (29.61, 468.75)Temperatura (degC), Punto: (29.805, 468.75)Temperatura (degC), Punto: (0, 492.19)Temperatura (degC), Punto: (15, 492.19)Temperatura (degC), Punto: (28.051, 492.19)Temperatura (degC), Punto: (29.025, 492.19)Temperatura (degC), Punto: (29.61, 492.19)Temperatura (degC), Punto: (29.805, 492.19)
18.000                   3.0000                   3.0000                   1.1000                   10000                    2500.0                   0.0000                   20.000                   20.000                   20.000                   20.000                   20.074                   20.241                   20.000                   20.000                   20.000                   20.000                   20.074                   20.241                   20.000                   20.000                   20.000                   20.000                   20.074                   20.241                   20.000                   20.000                   20.000                   20.000                   20.074                   20.241                   20.000                   20.000                   20.000                   20.000                   20.074                   20.241                   20.000                   20.000                   20.000                   20.000                   20.074                   20.241                   20.000                   20.000                   20.000                   20.000                   20.074                   20.241                   20.000                   20.000                   20.000                   20.000                   20.075                   20.242                   20.000                   20.000                   20.000                   20.000                   20.079                   20.250                   20.000                   20.000                   20.000                   20.000                   20.090                   20.272
18.000                   3.0000                   3.0000                   1.1000                   10000                    2500.0                   5.0000                   26.554                   50.059                   186.35                   205.72                   217.56                   220.50                   26.508                   50.096                   186.06                   205.24                   216.87                   219.84                   26.510                   50.087                   185.89                   205.12                   216.89                   219.82                   26.508                   50.078                   185.93                   205.16                   216.90                   219.88                   26.504                   50.039                   185.83                   205.15                   216.94                   219.90                   26.490                   49.990                   185.51                   204.66                   216.32                   219.28                   26.523                   50.071                   186.23                   205.76                   217.74                   220.73                   26.637                   50.732                   190.41                   210.39                   222.56                   225.56                   26.908                   51.553                   194.39                   214.98                   227.67                   230.87                   32.396                   63.297                   215.06                   235.64                   248.25                   251.46
18.000                   3.0000                   3.0000                   1.1000                   10000                    2500.0                   10.000                   69.754                   122.40                   314.93                   339.62                   354.61                   358.26                   69.665                   122.27                   314.07                   338.81                   353.88                   357.49                   69.667                   122.25                   313.48                   338.01                   352.93                   356.54                   69.685                   122.33                   314.13                   338.78                   353.84                   357.49                   69.642                   122.20                   313.65                   338.29                   353.31                   356.96                   69.534                   121.97                   313.20                   337.86                   352.91                   356.56                   69.792                   122.55                   314.71                   339.33                   354.26                   357.87                   70.912                   125.00                   323.97                   349.51                   364.97                   368.67                   72.980                   128.07                   329.87                   356.00                   371.83                   375.59                   85.959                   147.31                   350.15                   374.90                   389.88                   393.45
18.000                   3.0000                   3.0000                   1.1000                   10000                    2500.0                   15.000                   135.59                   206.46                   448.02                   479.24                   497.52                   501.70                   135.16                   205.40                   441.19                   471.28                   488.80                   492.78                   135.27                   205.69                   441.41                   471.39                   488.50                   492.39                   135.46                   206.33                   447.44                   478.52                   496.81                   500.99                   135.25                   205.77                   444.26                   474.81                   492.87                   497.03                   135.11                   205.69                   446.78                   478.10                   496.53                   500.72                   135.64                   206.36                   443.17                   472.96                   490.16                   494.12                   138.26                   211.06                   460.92                   493.08                   511.89                   516.13                   142.31                   215.80                   467.42                   500.09                   519.13                   523.38                   160.13                   237.44                   476.51                   504.90                   521.50                   525.30
18.000                   3.0000                   3.0000                   1.1000                   10000                    2500.0                   20.000                   209.36                   293.17                   573.98                   610.42                   631.58                   636.18                   208.21                   290.52                   560.84                   595.13                   614.40                   618.62                   208.61                   291.51                   564.36                   599.65                   618.24                   622.25                   209.16                   293.16                   576.07                   612.82                   634.21                   638.88                   208.54                   291.59                   566.19                   600.79                   620.79                   625.24                   208.46                   291.84                   571.99                   608.45                   629.36                   633.89                   209.33                   292.86                   569.09                   604.38                   624.45                   628.82                   213.55                   299.75                   592.18                   630.32                   652.65                   657.50                   219.04                   305.54                   599.99                   639.09                   661.75                   666.60                   239.59                   326.99                   592.88                   623.94                   642.00                   646.04
18.000                   3.0000                   3.0000                   1.1000                   10000                    2500.0                   25.000                   287.04                   379.06                   693.40                   739.07                   764.75                   769.91                   285.17                   375.81                   685.80                   730.89                   756.35                   761.49                   285.89                   377.13                   688.50                   733.74                   759.37                   764.53                   286.78                   379.03                   694.49                   740.26                   765.88                   771.04                   285.66                   376.93                   688.75                   733.93                   759.35                   764.48                   285.68                   377.27                   691.04                   736.58                   762.22                   767.38                   286.95                   378.82                   692.26                   737.89                   763.54                   768.71                   292.26                   386.27                   706.30                   752.98                   779.19                   784.45                   298.06                   391.62                   709.35                   755.48                   781.42                   786.61                   316.04                   409.22                   691.45                   728.32                   749.38                   753.70
18.000                   3.0000                   3.0000                   1.1000                   10000                    2500.0                   30.000                   362.03                   459.03                   800.45                   855.74                   884.66                   890.08                   359.81                   455.93                   794.13                   848.85                   877.60                   883.04                   360.71                   457.30                   796.36                   850.98                   880.12                   885.62                   361.75                   459.01                   800.82                   855.68                   884.45                   889.88                   360.32                   456.84                   795.41                   849.76                   878.52                   883.99                   360.40                   457.17                   798.58                   853.81                   883.15                   888.65                   361.95                   459.01                   801.52                   856.96                   885.87                   891.31                   367.71                   466.15                   814.56                   870.93                   900.19                   905.65                   373.03                   470.30                   813.71                   868.83                   897.67                   903.08                   388.10                   483.54                   773.81                   816.18                   839.17                   843.66
18.000                   3.0000                   3.0000                   1.1000                   10000                    2500.0                   35.000                   432.04                   531.69                   906.51                   961.96                   988.61                   993.30                   429.79                   528.97                   902.08                   957.97                   984.66                   989.37                   430.77                   530.31                   903.73                   959.07                   985.82                   990.54                   431.80                   531.78                   907.17                   962.16                   988.67                   993.35                   430.24                   529.68                   903.39                   959.04                   985.69                   990.40                   430.36                   530.04                   905.48                   960.99                   987.90                   992.64                   432.03                   531.90                   908.78                   964.48                   990.93                   995.58                   437.77                   538.55                   919.41                   974.38                   1000.3                   1004.8                   442.15                   541.35                   918.77                   973.35                   999.34                   1003.9                   454.41                   550.05                   857.64                   902.15                   924.85                   929.07
18.000                   3.0000                   3.0000                   1.1000                   10000                    2500.0                   40.000                   496.50                   596.78                   982.38                   1026.8                   1044.1                   1046.6                   494.39                   594.52                   978.27                   1022.3                   1040.5                   1043.3                   495.39                   595.73                   974.94                   1017.5                   1035.3                   1038.2                   496.35                   597.01                   978.09                   1020.7                   1037.9                   1040.5                   494.76                   595.05                   972.34                   1014.1                   1032.0                   1034.9                   494.92                   595.42                   974.59                   1017.2                   1034.7                   1037.4                   496.58                   597.15                   981.07                   1023.6                   1040.6                   1043.3                   502.12                   603.04                   978.13                   1018.2                   1034.5                   1037.1                   505.43                   604.85                   975.20                   1012.0                   1027.0                   1029.3                   514.81                   608.86                   927.15                   965.44                   984.31                   987.70
18.000                   3.0000                   3.0000                   1.1000                   10000                    2500.0                   45.000                   554.20                   651.44                   1049.8                   1082.8                   1091.7                   1092.4                   552.28                   649.31                   1037.6                   1070.4                   1080.2                   1081.2                   553.26                   650.17                   1003.1                   1033.1                   1044.1                   1045.6                   554.13                   650.95                   989.19                   1018.3                   1029.9                   1031.7                   552.61                   649.23                   976.11                   1002.0                   1013.5                   1015.5                   552.76                   649.29                   977.10                   1005.0                   1017.0                   1019.0                   554.34                   651.13                   992.65                   1021.3                   1032.5                   1034.2                   559.43                   655.56                   986.49                   1015.5                   1027.5                   1029.4                   562.02                   658.29                   1005.4                   1031.9                   1041.2                   1042.4                   568.62                   659.15                   990.89                   1021.8                   1034.3                   1036.1
18.000                   3.0000                   3.0000                   1.1000                   10000                    2500.0                   50.000                   604.67                   696.96                   1077.0                   1097.7                   1102.6                   1102.7                   602.96                   695.00                   1072.6                   1094.6                   1099.9                   1100.0                   603.88                   695.29                   1034.9                   1058.2                   1065.3                   1065.9                   604.56                   694.84                   994.66                   1016.0                   1024.9                   1026.3                   603.25                   693.45                   981.07                   1000.3                   1008.9                   1010.4                   603.30                   692.93                   976.74                   996.81                   1006.2                   1007.8                   604.75                   695.19                   1000.4                   1021.7                   1030.2                   1031.4                   609.08                   697.80                   989.07                   1011.2                   1021.0                   1022.6                   611.44                   702.35                   1027.1                   1048.4                   1055.3                   1056.1                   615.74                   703.97                   1067.3                   1088.7                   1093.9                   1094.1
18.000                   3.0000                   3.0000                   1.1000                   10000                    2500.0                   55.000                   645.81                   733.34                   1082.1                   1098.0                   1101.5                   1101.4                   644.32                   731.66                   1080.4                   1096.9                   1100.6                   1100.5                   645.17                   731.55                   1055.6                   1073.9                   1078.7                   1078.9                   645.60                   729.58                   1008.0                   1025.6                   1032.4                   1033.3                   644.54                   728.47                   994.51                   1010.4                   1017.1                   1018.2                   644.45                   727.52                   988.48                   1004.6                   1011.8                   1012.9                   645.79                   730.21                   1016.0                   1033.8                   1040.2                   1041.0                   649.25                   731.18                   996.68                   1014.4                   1022.1                   1023.2                   651.67                   737.44                   1042.1                   1059.8                   1065.1                   1065.4                   655.39                   745.25                   1104.7                   1118.0                   1120.0                   1119.6
18.000                   3.0000                   3.0000                   1.1000                   10000                    2500.0                   60.000                   679.76                   765.10                   1081.3                   1094.3                   1097.0                   1096.7                   678.52                   763.29                   1079.9                   1093.3                   1096.1                   1095.9                   679.28                   763.12                   1066.0                   1080.4                   1083.8                   1083.8                   679.44                   759.63                   1024.2                   1039.4                   1044.7                   1045.1                   678.65                   758.76                   1012.3                   1026.1                   1031.2                   1031.8                   678.44                   757.44                   1006.4                   1020.1                   1025.4                   1026.1                   679.65                   760.65                   1032.5                   1047.7                   1052.6                   1052.9                   682.27                   760.28                   1009.4                   1024.1                   1029.8                   1030.5                   684.76                   768.31                   1052.2                   1066.8                   1070.8                   1070.9                   689.18                   786.63                   1120.9                   1129.4                   1130.0                   1129.4
18.000                   3.0000                   3.0000                   1.1000                   10000                    2500.0                   65.000                   705.74                   796.06                   1078.1                   1089.1                   1091.2                   1090.9                   704.70                   794.10                   1076.8                   1088.0                   1090.2                   1089.9                   705.31                   794.23                   1069.4                   1081.1                   1083.6                   1083.4                   705.28                   790.06                   1039.4                   1052.3                   1056.1                   1056.3                   704.76                   789.49                   1032.0                   1044.1                   1047.9                   1048.1                   704.50                   787.94                   1027.6                   1039.8                   1043.7                   1044.0                   705.48                   791.33                   1045.9                   1058.6                   1062.1                   1062.2                   707.27                   790.27                   1027.3                   1039.9                   1044.1                   1044.5                   709.57                   799.31                   1058.3                   1070.2                   1073.1                   1073.0                   715.10                   829.76                   1129.7                   1135.4                   1135.2                   1134.5
18.000                   3.0000                   3.0000                   1.1000                   10000                    2500.0                   70.000                   727.82                   826.18                   1075.8                   1085.0                   1086.6                   1086.2                   726.88                   824.23                   1074.5                   1083.9                   1085.6                   1085.2                   727.42                   824.70                   1071.5                   1081.0                   1082.7                   1082.4                   727.25                   820.54                   1052.9                   1063.5                   1066.1                   1066.0                   726.92                   820.26                   1049.6                   1060.0                   1062.6                   1062.5                   726.60                   818.64                   1046.9                   1057.4                   1060.1                   1060.0                   727.45                   821.89                   1057.3                   1067.6                   1070.0                   1069.8                   728.71                   820.66                   1044.7                   1055.4                   1058.2                   1058.2                   731.14                   830.14                   1063.8                   1073.3                   1075.3                   1075.0                   739.49                   872.09                   1136.8                   1140.5                   1139.8                   1139.0
18.000                   3.0000                   3.0000                   1.1000                   10000                    2500.0                   75.000                   746.33                   855.33                   1075.2                   1082.8                   1084.0                   1083.5                   745.38                   853.59                   1074.2                   1081.9                   1083.1                   1082.7                   745.96                   854.39                   1073.4                   1081.1                   1082.3                   1081.9                   745.72                   851.02                   1064.1                   1072.5                   1074.1                   1073.7                   745.46                   850.99                   1063.8                   1072.3                   1073.8                   1073.5                   745.06                   849.47                   1062.5                   1071.1                   1072.8                   1072.4                   745.94                   852.22                   1066.7                   1074.8                   1076.3                   1075.9                   747.08                   851.39                   1060.1                   1068.8                   1070.5                   1070.2                   750.16                   860.69                   1069.3                   1076.8                   1078.0                   1077.6                   763.63                   912.85                   1143.4                   1145.8                   1144.7                   1143.8