% Model:              batchmodel_COIL_N_18_COIL_kr_1.5_COIL_kh_2_COIL_kturn_1.4_FUNZ_freq_10000_FUNZ_I_eff_2500.mph
% Version:            COMSOL 5.6.0.280
% Date:               Feb 1 2022, 15:37
% Table:              Tabella 1 - GRIGLIA_T
% COIL_N                 COIL_kr                  COIL_kh                  COIL_kturn               FUNZ_freq                FUNZ_I_eff               Time (s)                 Temperatura (degC), Punto: (0, 0)Temperatura (degC), Punto: (15, 0)Temperatura (degC), Punto: (28.051, 0)Temperatura (degC), Punto: (29.025, 0)Temperatura (degC), Punto: (29.61, 0)Temperatura (degC), Punto: (29.805, 0)Temperatura (degC), Punto: (0, 62.5)Temperatura (degC), Punto: (15, 62.5)Temperatura (degC), Punto: (28.051, 62.5)Temperatura (degC), Punto: (29.025, 62.5)Temperatura (degC), Punto: (29.61, 62.5)Temperatura (degC), Punto: (29.805, 62.5)Temperatura (degC), Punto: (0, 125)Temperatura (degC), Punto: (15, 125)Temperatura (degC), Punto: (28.051, 125)Temperatura (degC), Punto: (29.025, 125)Temperatura (degC), Punto: (29.61, 125)Temperatura (degC), Punto: (29.805, 125)Temperatura (degC), Punto: (0, 187.5)Temperatura (degC), Punto: (15, 187.5)Temperatura (degC), Punto: (28.051, 187.5)Temperatura (degC), Punto: (29.025, 187.5)Temperatura (degC), Punto: (29.61, 187.5)Temperatura (degC), Punto: (29.805, 187.5)Temperatura (degC), Punto: (0, 250)Temperatura (degC), Punto: (15, 250)Temperatura (degC), Punto: (28.051, 250)Temperatura (degC), Punto: (29.025, 250)Temperatura (degC), Punto: (29.61, 250)Temperatura (degC), Punto: (29.805, 250)Temperatura (degC), Punto: (0, 312.5)Temperatura (degC), Punto: (15, 312.5)Temperatura (degC), Punto: (28.051, 312.5)Temperatura (degC), Punto: (29.025, 312.5)Temperatura (degC), Punto: (29.61, 312.5)Temperatura (degC), Punto: (29.805, 312.5)Temperatura (degC), Punto: (0, 375)Temperatura (degC), Punto: (15, 375)Temperatura (degC), Punto: (28.051, 375)Temperatura (degC), Punto: (29.025, 375)Temperatura (degC), Punto: (29.61, 375)Temperatura (degC), Punto: (29.805, 375)Temperatura (degC), Punto: (0, 437.5)Temperatura (degC), Punto: (15, 437.5)Temperatura (degC), Punto: (28.051, 437.5)Temperatura (degC), Punto: (29.025, 437.5)Temperatura (degC), Punto: (29.61, 437.5)Temperatura (degC), Punto: (29.805, 437.5)Temperatura (degC), Punto: (0, 468.75)Temperatura (degC), Punto: (15, 468.75)Temperatura (degC), Punto: (28.051, 468.75)Temperatura (degC), Punto: (29.025, 468.75)Temperatura (degC), Punto: (29.61, 468.75)Temperatura (degC), Punto: (29.805, 468.75)Temperatura (degC), Punto: (0, 492.19)Temperatura (degC), Punto: (15, 492.19)Temperatura (degC), Punto: (28.051, 492.19)Temperatura (degC), Punto: (29.025, 492.19)Temperatura (degC), Punto: (29.61, 492.19)Temperatura (degC), Punto: (29.805, 492.19)
18.000                   1.5000                   2.0000                   1.4000                   10000                    2500.0                   0.0000                   20.000                   20.000                   20.000                   20.000                   20.105                   20.302                   20.000                   20.000                   20.000                   20.000                   20.112                   20.312                   20.000                   20.000                   20.000                   20.000                   20.119                   20.330                   20.000                   20.000                   20.000                   20.000                   20.126                   20.344                   20.000                   20.000                   20.000                   20.000                   20.129                   20.350                   20.000                   20.000                   20.000                   20.000                   20.129                   20.349                   20.000                   20.000                   20.000                   20.000                   20.124                   20.340                   20.000                   20.000                   20.000                   20.000                   20.117                   20.324                   20.000                   20.000                   20.000                   20.000                   20.127                   20.346                   20.000                   20.000                   20.000                   20.000                   20.097                   20.284
18.000                   1.5000                   2.0000                   1.4000                   10000                    2500.0                   5.0000                   29.842                   61.860                   244.74                   270.55                   285.68                   289.62                   29.944                   62.691                   250.31                   277.18                   293.37                   297.40                   30.098                   63.557                   257.42                   285.39                   301.86                   306.08                   30.279                   64.575                   267.27                   297.90                   316.68                   321.32                   30.336                   64.949                   272.38                   304.43                   324.18                   328.83                   30.275                   64.660                   270.12                   301.79                   321.30                   325.91                   30.206                   64.190                   264.69                   295.10                   313.90                   318.41                   29.991                   62.995                   251.25                   278.33                   294.51                   298.40                   30.127                   64.067                   266.26                   297.24                   316.27                   320.79                   31.908                   62.081                   218.36                   239.11                   251.46                   254.69
18.000                   1.5000                   2.0000                   1.4000                   10000                    2500.0                   10.000                   84.132                   157.17                   434.25                   472.53                   495.76                   500.94                   84.801                   158.94                   441.46                   480.92                   502.94                   507.73                   85.437                   160.93                   453.30                   495.04                   519.55                   524.81                   86.176                   163.32                   469.75                   514.32                   540.23                   545.72                   86.661                   164.86                   475.55                   520.75                   546.65                   552.13                   86.254                   163.91                   473.06                   518.00                   543.76                   549.24                   85.966                   162.69                   465.60                   509.61                   535.05                   540.52                   84.731                   158.93                   443.00                   482.12                   504.82                   509.96                   84.929                   160.93                   463.60                   507.52                   532.86                   538.31                   83.492                   150.46                   383.30                   413.10                   430.60                   434.87
18.000                   1.5000                   2.0000                   1.4000                   10000                    2500.0                   15.000                   171.66                   269.25                   636.41                   690.20                   721.97                   728.49                   172.52                   270.75                   636.64                   690.29                   721.83                   728.37                   173.58                   273.40                   651.22                   710.27                   744.15                   750.92                   174.64                   276.28                   665.51                   726.74                   761.06                   767.90                   175.48                   277.91                   670.54                   733.30                   768.07                   774.97                   174.96                   277.26                   670.43                   733.63                   768.52                   775.41                   174.41                   275.54                   659.19                   718.10                   751.65                   758.39                   172.23                   270.90                   642.48                   698.08                   729.89                   736.47                   171.43                   271.42                   654.35                   714.09                   747.80                   754.51                   166.53                   255.05                   554.01                   593.90                   617.66                   622.71
18.000                   1.5000                   2.0000                   1.4000                   10000                    2500.0                   20.000                   268.12                   380.06                   797.92                   869.31                   905.28                   911.90                   268.78                   381.06                   800.23                   872.32                   908.56                   915.22                   270.10                   384.01                   820.98                   897.26                   934.60                   941.36                   271.22                   386.91                   843.37                   923.19                   961.13                   967.82                   272.06                   388.36                   854.28                   935.92                   974.23                   980.90                   271.75                   388.17                   854.13                   935.52                   973.71                   980.37                   270.99                   386.12                   835.48                   914.21                   952.02                   958.75                   268.42                   381.39                   810.31                   884.96                   921.97                   928.71                   266.00                   379.70                   824.71                   903.51                   941.73                   948.58                   257.43                   358.65                   686.60                   731.34                   756.61                   761.76
18.000                   1.5000                   2.0000                   1.4000                   10000                    2500.0                   25.000                   361.07                   477.97                   898.60                   955.72                   982.80                   987.58                   361.56                   478.88                   901.23                   958.15                   985.09                   989.85                   363.17                   482.50                   905.12                   957.86                   982.79                   987.20                   364.48                   487.12                   956.23                   1006.1                   1025.8                   1028.9                   365.37                   490.21                   1093.6                   1137.4                   1147.9                   1148.7                   365.25                   489.75                   1052.1                   1101.3                   1114.4                   1115.6                   364.18                   485.53                   920.76                   968.50                   990.47                   994.35                   361.26                   479.56                   900.78                   955.40                   981.28                   985.85                   357.29                   477.35                   1025.4                   1091.1                   1110.1                   1112.3                   345.39                   450.07                   759.00                   798.54                   820.20                   824.44
18.000                   1.5000                   2.0000                   1.4000                   10000                    2500.0                   30.000                   444.07                   557.97                   952.87                   999.14                   1020.4                   1024.1                   444.59                   559.00                   949.19                   993.84                   1014.7                   1018.3                   446.81                   564.07                   943.28                   980.80                   998.58                   1001.7                   448.90                   572.62                   1040.5                   1074.2                   1083.9                   1084.9                   450.24                   578.97                   1130.1                   1152.7                   1157.2                   1157.1                   450.10                   577.68                   1109.2                   1134.4                   1140.0                   1140.0                   448.31                   569.39                   986.37                   1022.3                   1035.9                   1037.9                   444.62                   560.17                   934.50                   974.58                   993.92                   997.37                   440.03                   563.13                   1126.4                   1154.1                   1160.1                   1160.2                   424.21                   524.49                   802.83                   837.21                   855.63                   859.22
18.000                   1.5000                   2.0000                   1.4000                   10000                    2500.0                   35.000                   513.67                   620.10                   988.60                   1026.5                   1041.9                   1044.3                   514.43                   621.55                   977.91                   1011.9                   1026.9                   1029.4                   517.53                   628.34                   989.87                   1019.2                   1031.1                   1033.0                   520.71                   639.64                   1082.0                   1104.5                   1109.8                   1109.9                   522.69                   647.45                   1118.9                   1134.8                   1137.6                   1137.2                   522.43                   645.77                   1111.0                   1128.2                   1131.5                   1131.3                   519.73                   635.43                   1048.4                   1075.7                   1083.4                   1084.0                   514.88                   623.07                   964.21                   994.58                   1008.8                   1011.2                   510.82                   631.94                   1130.4                   1148.4                   1151.7                   1151.4                   489.92                   582.65                   837.04                   867.10                   883.15                   886.26
18.000                   1.5000                   2.0000                   1.4000                   10000                    2500.0                   40.000                   572.88                   670.11                   993.49                   1020.9                   1032.4                   1034.1                   573.91                   672.24                   997.15                   1022.8                   1033.2                   1034.8                   577.71                   680.70                   1041.7                   1065.4                   1072.5                   1073.1                   581.70                   693.00                   1095.4                   1111.2                   1114.3                   1114.1                   584.10                   700.76                   1110.1                   1122.5                   1124.4                   1124.0                   583.75                   699.14                   1106.9                   1120.1                   1122.3                   1121.9                   580.45                   688.55                   1080.5                   1099.0                   1103.2                   1103.2                   574.65                   674.11                   998.38                   1022.9                   1032.6                   1034.1                   571.50                   686.50                   1120.8                   1134.7                   1137.0                   1136.6                   545.93                   629.84                   863.84                   889.89                   903.77                   906.46
18.000                   1.5000                   2.0000                   1.4000                   10000                    2500.0                   45.000                   623.35                   711.26                   994.38                   1013.5                   1021.7                   1023.0                   624.58                   714.34                   1020.8                   1041.1                   1048.1                   1048.9                   628.83                   724.14                   1074.4                   1091.2                   1095.0                   1095.0                   633.26                   736.84                   1099.7                   1111.5                   1113.4                   1113.0                   635.86                   744.27                   1105.6                   1115.6                   1117.0                   1116.5                   635.44                   742.79                   1104.3                   1114.7                   1116.2                   1115.7                   631.86                   732.29                   1093.2                   1106.3                   1108.8                   1108.5                   625.49                   716.59                   1034.0                   1054.3                   1060.8                   1061.3                   623.17                   730.82                   1116.1                   1127.2                   1128.8                   1128.3                   594.35                   669.65                   886.53                   908.99                   920.90                   923.20
18.000                   1.5000                   2.0000                   1.4000                   10000                    2500.0                   50.000                   660.90                   744.53                   1016.6                   1032.3                   1038.1                   1038.7                   662.23                   748.74                   1042.8                   1058.9                   1063.7                   1064.0                   666.44                   760.46                   1083.4                   1096.3                   1098.8                   1098.5                   670.77                   774.30                   1101.6                   1111.1                   1112.4                   1111.9                   673.27                   781.90                   1106.1                   1114.4                   1115.3                   1114.8                   672.85                   780.33                   1105.1                   1113.7                   1114.7                   1114.1                   669.41                   769.54                   1096.7                   1107.2                   1108.8                   1108.4                   663.13                   751.45                   1055.7                   1071.7                   1076.0                   1076.1                   661.31                   766.76                   1114.1                   1123.4                   1124.4                   1123.9                   631.38                   699.67                   905.80                   925.18                   935.42                   937.39
18.000                   1.5000                   2.0000                   1.4000                   10000                    2500.0                   55.000                   692.84                   778.41                   1040.1                   1052.9                   1056.6                   1056.7                   694.10                   783.42                   1061.1                   1073.5                   1076.5                   1076.3                   697.99                   796.43                   1089.6                   1099.3                   1100.9                   1100.5                   702.02                   810.69                   1103.8                   1111.5                   1112.2                   1111.6                   704.32                   818.18                   1107.8                   1114.7                   1115.2                   1114.6                   703.92                   816.62                   1106.9                   1114.0                   1114.5                   1113.9                   700.75                   805.95                   1099.8                   1108.1                   1109.0                   1108.5                   694.93                   786.44                   1072.0                   1084.1                   1086.7                   1086.5                   693.56                   801.35                   1113.0                   1120.7                   1121.4                   1120.8                   663.92                   726.64                   924.42                   940.99                   949.69                   951.35
18.000                   1.5000                   2.0000                   1.4000                   10000                    2500.0                   60.000                   718.92                   813.91                   1062.4                   1072.3                   1074.3                   1074.1                   719.87                   819.27                   1075.2                   1084.3                   1085.9                   1085.5                   723.16                   832.62                   1094.4                   1101.9                   1102.7                   1102.2                   726.64                   846.26                   1106.6                   1112.7                   1113.0                   1112.3                   728.66                   853.21                   1110.7                   1116.3                   1116.4                   1115.7                   728.30                   851.79                   1109.8                   1115.5                   1115.6                   1115.0                   725.54                   841.86                   1103.0                   1109.5                   1110.0                   1109.4                   720.57                   822.42                   1082.9                   1091.8                   1093.2                   1092.7                   719.64                   835.01                   1113.0                   1119.4                   1119.6                   1119.0                   691.85                   750.72                   942.56                   956.61                   963.91                   965.28
18.000                   1.5000                   2.0000                   1.4000                   10000                    2500.0                   65.000                   740.02                   849.97                   1077.2                   1084.7                   1085.7                   1085.3                   741.15                   854.92                   1085.6                   1092.6                   1093.3                   1092.8                   745.01                   867.03                   1100.2                   1106.0                   1106.3                   1105.6                   749.11                   879.18                   1110.7                   1115.7                   1115.5                   1114.8                   751.52                   885.44                   1114.8                   1119.4                   1119.0                   1118.3                   751.08                   884.18                   1113.9                   1118.5                   1118.3                   1117.6                   747.81                   875.30                   1107.5                   1112.8                   1112.7                   1112.1                   741.93                   857.77                   1091.7                   1098.4                   1098.9                   1098.4                   740.43                   866.05                   1114.8                   1120.1                   1120.0                   1119.3                   712.32                   775.69                   961.78                   973.75                   979.75                   980.83
18.000                   1.5000                   2.0000                   1.4000                   10000                    2500.0                   70.000                   769.15                   884.05                   1088.8                   1094.4                   1094.6                   1094.0                   770.55                   888.47                   1094.6                   1099.8                   1099.9                   1099.3                   774.95                   899.17                   1106.2                   1110.7                   1110.5                   1109.8                   779.58                   909.80                   1115.5                   1119.4                   1118.9                   1118.2                   782.33                   915.38                   1119.5                   1123.1                   1122.5                   1121.7                   781.83                   914.27                   1118.6                   1122.3                   1121.7                   1120.9                   778.13                   906.44                   1112.6                   1116.7                   1116.3                   1115.6                   771.23                   890.91                   1099.6                   1104.6                   1104.6                   1103.9                   767.53                   895.09                   1117.5                   1121.8                   1121.4                   1120.6                   733.88                   804.79                   986.67                   997.03                   1001.7                   1002.4
18.000                   1.5000                   2.0000                   1.4000                   10000                    2500.0                   75.000                   806.80                   916.07                   1097.2                   1101.4                   1101.2                   1100.5                   808.54                   919.87                   1102.2                   1106.2                   1105.8                   1105.1                   813.41                   929.04                   1112.4                   1115.9                   1115.3                   1114.6                   818.44                   938.16                   1120.9                   1123.9                   1123.1                   1122.3                   821.44                   943.05                   1124.7                   1127.4                   1126.6                   1125.7                   820.93                   942.10                   1123.8                   1126.7                   1125.8                   1125.0                   816.88                   935.27                   1118.3                   1121.4                   1120.7                   1119.9                   808.95                   921.80                   1106.7                   1110.5                   1110.1                   1109.4                   801.39                   922.17                   1120.9                   1124.4                   1123.7                   1122.9                   756.91                   838.11                   1017.4                   1026.6                   1030.0                   1030.3