% Model:              batchmodel_COIL_N_18_COIL_kr_2.25_COIL_kh_1_COIL_kturn_1.1_FUNZ_freq_10000_FUNZ_I_eff_2500.mph
% Version:            COMSOL 5.6.0.280
% Date:               Feb 1 2022, 19:14
% Table:              Tabella 1 - GRIGLIA_T
% COIL_N                 COIL_kr                  COIL_kh                  COIL_kturn               FUNZ_freq                FUNZ_I_eff               Time (s)                 Temperatura (degC), Punto: (0, 0)Temperatura (degC), Punto: (15, 0)Temperatura (degC), Punto: (28.051, 0)Temperatura (degC), Punto: (29.025, 0)Temperatura (degC), Punto: (29.61, 0)Temperatura (degC), Punto: (29.805, 0)Temperatura (degC), Punto: (0, 62.5)Temperatura (degC), Punto: (15, 62.5)Temperatura (degC), Punto: (28.051, 62.5)Temperatura (degC), Punto: (29.025, 62.5)Temperatura (degC), Punto: (29.61, 62.5)Temperatura (degC), Punto: (29.805, 62.5)Temperatura (degC), Punto: (0, 125)Temperatura (degC), Punto: (15, 125)Temperatura (degC), Punto: (28.051, 125)Temperatura (degC), Punto: (29.025, 125)Temperatura (degC), Punto: (29.61, 125)Temperatura (degC), Punto: (29.805, 125)Temperatura (degC), Punto: (0, 187.5)Temperatura (degC), Punto: (15, 187.5)Temperatura (degC), Punto: (28.051, 187.5)Temperatura (degC), Punto: (29.025, 187.5)Temperatura (degC), Punto: (29.61, 187.5)Temperatura (degC), Punto: (29.805, 187.5)Temperatura (degC), Punto: (0, 250)Temperatura (degC), Punto: (15, 250)Temperatura (degC), Punto: (28.051, 250)Temperatura (degC), Punto: (29.025, 250)Temperatura (degC), Punto: (29.61, 250)Temperatura (degC), Punto: (29.805, 250)Temperatura (degC), Punto: (0, 312.5)Temperatura (degC), Punto: (15, 312.5)Temperatura (degC), Punto: (28.051, 312.5)Temperatura (degC), Punto: (29.025, 312.5)Temperatura (degC), Punto: (29.61, 312.5)Temperatura (degC), Punto: (29.805, 312.5)Temperatura (degC), Punto: (0, 375)Temperatura (degC), Punto: (15, 375)Temperatura (degC), Punto: (28.051, 375)Temperatura (degC), Punto: (29.025, 375)Temperatura (degC), Punto: (29.61, 375)Temperatura (degC), Punto: (29.805, 375)Temperatura (degC), Punto: (0, 437.5)Temperatura (degC), Punto: (15, 437.5)Temperatura (degC), Punto: (28.051, 437.5)Temperatura (degC), Punto: (29.025, 437.5)Temperatura (degC), Punto: (29.61, 437.5)Temperatura (degC), Punto: (29.805, 437.5)Temperatura (degC), Punto: (0, 468.75)Temperatura (degC), Punto: (15, 468.75)Temperatura (degC), Punto: (28.051, 468.75)Temperatura (degC), Punto: (29.025, 468.75)Temperatura (degC), Punto: (29.61, 468.75)Temperatura (degC), Punto: (29.805, 468.75)Temperatura (degC), Punto: (0, 492.19)Temperatura (degC), Punto: (15, 492.19)Temperatura (degC), Punto: (28.051, 492.19)Temperatura (degC), Punto: (29.025, 492.19)Temperatura (degC), Punto: (29.61, 492.19)Temperatura (degC), Punto: (29.805, 492.19)
18.000                   2.2500                   1.0000                   1.1000                   10000                    2500.0                   0.0000                   20.000                   20.000                   20.000                   20.007                   20.539                   20.999                   20.000                   20.000                   20.000                   20.007                   20.539                   20.999                   20.000                   20.000                   20.000                   20.007                   20.538                   20.997                   20.000                   20.000                   20.000                   20.003                   20.419                   20.824                   20.000                   20.000                   20.000                   20.000                   20.028                   20.133                   20.000                   20.000                   20.000                   20.000                   20.001                   20.018                   20.000                   20.000                   20.000                   20.000                   20.000                   20.004                   20.000                   20.000                   20.000                   20.000                   20.000                   20.001                   20.000                   20.000                   20.000                   20.000                   20.000                   20.001                   20.000                   20.000                   20.000                   20.000                   20.000                   20.000
18.000                   2.2500                   1.0000                   1.1000                   10000                    2500.0                   5.0000                   45.787                   155.08                   1028.3                   1152.2                   1183.1                   1186.5                   45.541                   155.04                   1018.3                   1144.5                   1176.2                   1179.8                   45.729                   155.90                   1028.7                   1151.7                   1182.2                   1185.7                   40.810                   132.78                   741.60                   873.60                   938.00                   949.25                   24.010                   41.435                   129.51                   140.62                   147.53                   149.51                   20.946                   24.620                   39.513                   41.027                   41.955                   42.266                   20.752                   23.405                   30.947                   31.455                   31.718                   31.799                   20.295                   21.301                   24.201                   24.399                   24.489                   24.516                   20.411                   21.872                   25.251                   25.386                   25.448                   25.466                   20.097                   20.380                   21.087                   21.135                   21.162                   21.171
18.000                   2.2500                   1.0000                   1.1000                   10000                    2500.0                   10.000                   187.24                   365.31                   1158.7                   1193.2                   1200.6                   1200.8                   187.02                   365.13                   1156.6                   1191.2                   1198.6                   1198.9                   187.61                   366.11                   1156.8                   1191.3                   1198.8                   1199.0                   162.91                   317.67                   1078.9                   1147.3                   1164.6                   1166.4                   55.111                   91.985                   204.76                   217.28                   225.03                   227.15                   26.496                   32.315                   47.782                   49.328                   50.280                   50.595                   23.853                   26.534                   31.780                   32.185                   32.427                   32.507                   21.623                   22.660                   24.556                   24.690                   24.769                   24.795                   21.659                   22.669                   24.208                   24.293                   24.340                   24.356                   20.643                   21.002                   21.625                   21.669                   21.695                   21.704
18.000                   2.2500                   1.0000                   1.1000                   10000                    2500.0                   15.000                   334.42                   517.07                   1190.5                   1209.1                   1212.4                   1212.0                   334.23                   516.97                   1190.1                   1208.8                   1212.0                   1211.7                   334.77                   517.57                   1190.0                   1208.7                   1211.9                   1211.5                   298.31                   467.11                   1181.0                   1206.6                   1211.7                   1211.5                   104.38                   149.47                   276.57                   290.42                   298.92                   301.16                   34.218                   40.650                   56.768                   58.354                   59.331                   59.654                   26.652                   28.817                   33.323                   33.718                   33.958                   34.038                   22.749                   23.530                   25.053                   25.180                   25.257                   25.282                   22.387                   22.992                   24.022                   24.098                   24.143                   24.158                   21.244                   21.547                   22.099                   22.142                   22.167                   22.176
18.000                   2.2500                   1.0000                   1.1000                   10000                    2500.0                   20.000                   453.31                   629.07                   1223.7                   1236.6                   1238.2                   1237.6                   453.14                   629.14                   1223.7                   1236.6                   1238.2                   1237.6                   453.53                   629.54                   1223.3                   1236.2                   1237.8                   1237.2                   413.03                   580.96                   1192.0                   1207.3                   1209.5                   1209.0                   158.11                   207.12                   343.31                   358.14                   367.19                   369.50                   42.999                   49.759                   66.448                   68.081                   69.086                   69.418                   29.009                   30.898                   35.141                   35.535                   35.777                   35.857                   23.606                   24.246                   25.626                   25.751                   25.828                   25.853                   22.849                   23.280                   24.137                   24.211                   24.256                   24.271                   21.765                   22.023                   22.532                   22.574                   22.600                   22.608
18.000                   2.2500                   1.0000                   1.1000                   10000                    2500.0                   25.000                   549.70                   721.96                   1264.3                   1274.7                   1275.5                   1274.7                   549.55                   722.28                   1264.1                   1274.4                   1275.3                   1274.5                   549.77                   722.10                   1263.3                   1273.7                   1274.6                   1273.8                   507.16                   669.84                   1207.1                   1218.0                   1219.0                   1218.4                   210.77                   261.87                   404.37                   419.93                   429.34                   431.67                   52.672                   59.690                   76.922                   78.604                   79.638                   79.980                   31.207                   32.972                   37.125                   37.522                   37.766                   37.847                   24.345                   24.917                   26.237                   26.362                   26.439                   26.464                   23.234                   23.590                   24.378                   24.451                   24.496                   24.511                   22.224                   22.456                   22.941                   22.983                   23.008                   23.017
18.000                   2.2500                   1.0000                   1.1000                   10000                    2500.0                   30.000                   628.03                   814.07                   1314.1                   1323.2                   1323.6                   1322.6                   627.80                   813.74                   1314.0                   1323.2                   1323.5                   1322.6                   627.82                   813.45                   1312.8                   1322.0                   1322.3                   1321.4                   584.44                   742.86                   1228.8                   1237.4                   1237.9                   1237.1                   260.36                   312.63                   459.22                   475.21                   484.82                   487.14                   63.234                   70.484                   88.239                   89.969                   91.033                   91.384                   33.386                   35.109                   39.253                   39.654                   39.900                   39.983                   25.038                   25.582                   26.879                   27.004                   27.081                   27.107                   23.604                   23.930                   24.692                   24.765                   24.810                   24.825                   22.642                   22.862                   23.335                   23.377                   23.402                   23.410
18.000                   2.2500                   1.0000                   1.1000                   10000                    2500.0                   35.000                   689.98                   919.48                   1366.7                   1374.3                   1373.9                   1372.8                   689.55                   918.98                   1366.6                   1374.2                   1373.9                   1372.7                   689.41                   918.13                   1365.6                   1373.2                   1372.9                   1371.7                   646.97                   818.41                   1257.4                   1264.8                   1264.8                   1263.9                   306.18                   359.05                   507.91                   524.24                   533.98                   536.30                   74.613                   82.073                   100.31                   102.08                   103.17                   103.53                   35.638                   37.351                   41.515                   41.920                   42.169                   42.252                   25.726                   26.258                   27.548                   27.674                   27.751                   27.776                   23.986                   24.299                   25.050                   25.123                   25.168                   25.183                   23.041                   23.254                   23.721                   23.763                   23.788                   23.796
18.000                   2.2500                   1.0000                   1.1000                   10000                    2500.0                   40.000                   742.93                   1017.7                   1401.2                   1406.7                   1405.7                   1404.4                   742.37                   1017.4                   1401.2                   1406.7                   1405.6                   1404.4                   741.98                   1016.2                   1400.4                   1405.9                   1404.9                   1403.6                   697.23                   897.81                   1291.3                   1297.7                   1297.3                   1296.2                   348.76                   401.79                   551.46                   567.98                   577.81                   580.11                   86.583                   94.230                   112.92                   114.74                   115.86                   116.23                   37.985                   39.701                   43.895                   44.303                   44.555                   44.639                   26.426                   26.952                   28.238                   28.364                   28.441                   28.467                   24.383                   24.689                   25.436                   25.509                   25.553                   25.568                   23.432                   23.641                   24.105                   24.146                   24.172                   24.180
18.000                   2.2500                   1.0000                   1.1000                   10000                    2500.0                   45.000                   833.56                   1105.1                   1428.8                   1433.3                   1431.8                   1430.5                   833.51                   1104.9                   1428.8                   1433.3                   1431.8                   1430.5                   832.26                   1103.5                   1427.9                   1432.3                   1430.9                   1429.5                   742.32                   974.97                   1327.1                   1332.6                   1331.7                   1330.6                   388.22                   440.97                   589.92                   606.42                   616.23                   618.49                   99.024                   106.85                   126.00                   127.87                   129.02                   129.39                   40.441                   42.168                   46.395                   46.807                   47.061                   47.145                   27.140                   27.664                   28.950                   29.076                   29.153                   29.179                   24.796                   25.100                   25.844                   25.916                   25.961                   25.976                   23.821                   24.028                   24.489                   24.531                   24.556                   24.565
18.000                   2.2500                   1.0000                   1.1000                   10000                    2500.0                   50.000                   945.38                   1182.0                   1466.4                   1471.0                   1469.4                   1467.9                   945.72                   1181.9                   1466.4                   1471.0                   1469.4                   1467.9                   943.71                   1180.2                   1464.7                   1469.3                   1467.7                   1466.2                   805.36                   1047.0                   1360.4                   1364.8                   1363.5                   1362.2                   424.73                   476.88                   623.99                   640.41                   650.16                   652.38                   111.84                   119.85                   139.46                   141.38                   142.55                   142.93                   43.015                   44.755                   49.018                   49.434                   49.690                   49.776                   27.873                   28.396                   29.683                   29.809                   29.886                   29.912                   25.226                   25.528                   26.271                   26.344                   26.389                   26.404                   24.212                   24.417                   24.877                   24.919                   24.944                   24.952
18.000                   2.2500                   1.0000                   1.1000                   10000                    2500.0                   55.000                   1054.3                   1249.6                   1515.7                   1520.4                   1518.5                   1516.8                   1054.6                   1249.5                   1515.7                   1520.4                   1518.4                   1516.8                   1052.2                   1247.6                   1513.1                   1517.8                   1515.9                   1514.3                   890.74                   1112.6                   1387.8                   1391.0                   1389.3                   1387.9                   458.47                   509.78                   654.30                   670.63                   680.28                   682.46                   124.96                   133.15                   153.21                   155.17                   156.37                   156.76                   45.716                   47.470                   51.771                   52.190                   52.448                   52.535                   28.625                   29.149                   30.437                   30.563                   30.641                   30.667                   25.672                   25.973                   26.716                   26.788                   26.833                   26.848                   24.606                   24.811                   25.270                   25.311                   25.336                   25.345
18.000                   2.2500                   1.0000                   1.1000                   10000                    2500.0                   60.000                   1146.7                   1306.8                   1565.3                   1568.8                   1566.1                   1564.3                   1147.0                   1306.9                   1565.4                   1568.9                   1566.2                   1564.3                   1144.3                   1305.0                   1562.6                   1566.1                   1563.4                   1561.6                   979.96                   1170.0                   1409.3                   1411.5                   1409.4                   1407.9                   489.18                   539.40                   680.70                   696.84                   706.38                   708.50                   138.31                   146.66                   167.15                   169.15                   170.38                   170.78                   48.580                   50.350                   54.687                   55.111                   55.371                   55.458                   29.406                   29.930                   31.220                   31.346                   31.424                   31.450                   26.138                   26.439                   27.181                   27.253                   27.298                   27.313                   25.009                   25.213                   25.671                   25.712                   25.737                   25.746
18.000                   2.2500                   1.0000                   1.1000                   10000                    2500.0                   65.000                   1213.7                   1348.7                   1610.2                   1612.3                   1608.8                   1606.7                   1214.0                   1349.7                   1610.6                   1612.7                   1609.2                   1607.1                   1211.0                   1348.6                   1608.7                   1610.8                   1607.3                   1605.2                   1051.0                   1215.5                   1429.2                   1431.2                   1428.9                   1427.4                   515.59                   564.40                   701.91                   717.77                   727.21                   729.30                   151.80                   160.31                   181.18                   183.22                   184.47                   184.88                   51.721                   53.506                   57.880                   58.307                   58.569                   58.657                   30.236                   30.761                   32.052                   32.179                   32.257                   32.283                   26.635                   26.936                   27.678                   27.750                   27.795                   27.810                   25.429                   25.633                   26.090                   26.131                   26.156                   26.165
18.000                   2.2500                   1.0000                   1.1000                   10000                    2500.0                   70.000                   1280.6                   1390.5                   1655.0                   1655.7                   1651.5                   1649.1                   1281.0                   1392.5                   1655.8                   1656.5                   1652.2                   1649.9                   1277.7                   1392.2                   1654.8                   1655.5                   1651.2                   1648.8                   1122.0                   1261.1                   1449.2                   1450.9                   1448.4                   1446.9                   541.99                   589.40                   723.13                   738.71                   748.04                   750.10                   165.30                   173.95                   195.21                   197.29                   198.56                   198.98                   54.862                   56.662                   61.072                   61.502                   61.767                   61.855                   31.066                   31.592                   32.885                   33.011                   33.089                   33.115                   27.132                   27.433                   28.174                   28.247                   28.292                   28.307                   25.850                   26.053                   26.509                   26.551                   26.576                   26.584
18.000                   2.2500                   1.0000                   1.1000                   10000                    2500.0                   75.000                   1309.5                   1443.7                   1696.1                   1695.5                   1690.4                   1687.8                   1313.2                   1445.2                   1696.8                   1696.2                   1691.1                   1688.5                   1313.2                   1442.4                   1695.1                   1694.5                   1689.4                   1686.8                   1175.2                   1296.6                   1476.6                   1477.8                   1475.1                   1473.4                   564.79                   610.80                   741.19                   756.57                   765.74                   767.74                   178.65                   187.42                   209.03                   211.15                   212.45                   212.87                   58.275                   60.091                   64.537                   64.970                   65.237                   65.326                   31.953                   32.479                   33.773                   33.900                   33.978                   34.004                   27.663                   27.963                   28.704                   28.777                   28.822                   28.837                   26.292                   26.496                   26.951                   26.992                   27.017                   27.025