% Model:              batchmodel_COIL_N_18_COIL_kr_3_COIL_kh_3_COIL_kturn_1.7_FUNZ_freq_2000_FUNZ_I_eff_4000.mph
% Version:            COMSOL 5.6.0.280
% Date:               Feb 2 2022, 08:57
% Table:              Tabella 1 - GRIGLIA_T
% COIL_N                 COIL_kr                  COIL_kh                  COIL_kturn               FUNZ_freq                FUNZ_I_eff               Time (s)                 Temperatura (degC), Punto: (0, 0)Temperatura (degC), Punto: (15, 0)Temperatura (degC), Punto: (25.641, 0)Temperatura (degC), Punto: (27.821, 0)Temperatura (degC), Punto: (29.128, 0)Temperatura (degC), Punto: (29.564, 0)Temperatura (degC), Punto: (0, 62.5)Temperatura (degC), Punto: (15, 62.5)Temperatura (degC), Punto: (25.641, 62.5)Temperatura (degC), Punto: (27.821, 62.5)Temperatura (degC), Punto: (29.128, 62.5)Temperatura (degC), Punto: (29.564, 62.5)Temperatura (degC), Punto: (0, 125)Temperatura (degC), Punto: (15, 125)Temperatura (degC), Punto: (25.641, 125)Temperatura (degC), Punto: (27.821, 125)Temperatura (degC), Punto: (29.128, 125)Temperatura (degC), Punto: (29.564, 125)Temperatura (degC), Punto: (0, 187.5)Temperatura (degC), Punto: (15, 187.5)Temperatura (degC), Punto: (25.641, 187.5)Temperatura (degC), Punto: (27.821, 187.5)Temperatura (degC), Punto: (29.128, 187.5)Temperatura (degC), Punto: (29.564, 187.5)Temperatura (degC), Punto: (0, 250)Temperatura (degC), Punto: (15, 250)Temperatura (degC), Punto: (25.641, 250)Temperatura (degC), Punto: (27.821, 250)Temperatura (degC), Punto: (29.128, 250)Temperatura (degC), Punto: (29.564, 250)Temperatura (degC), Punto: (0, 312.5)Temperatura (degC), Punto: (15, 312.5)Temperatura (degC), Punto: (25.641, 312.5)Temperatura (degC), Punto: (27.821, 312.5)Temperatura (degC), Punto: (29.128, 312.5)Temperatura (degC), Punto: (29.564, 312.5)Temperatura (degC), Punto: (0, 375)Temperatura (degC), Punto: (15, 375)Temperatura (degC), Punto: (25.641, 375)Temperatura (degC), Punto: (27.821, 375)Temperatura (degC), Punto: (29.128, 375)Temperatura (degC), Punto: (29.564, 375)Temperatura (degC), Punto: (0, 437.5)Temperatura (degC), Punto: (15, 437.5)Temperatura (degC), Punto: (25.641, 437.5)Temperatura (degC), Punto: (27.821, 437.5)Temperatura (degC), Punto: (29.128, 437.5)Temperatura (degC), Punto: (29.564, 437.5)Temperatura (degC), Punto: (0, 468.75)Temperatura (degC), Punto: (15, 468.75)Temperatura (degC), Punto: (25.641, 468.75)Temperatura (degC), Punto: (27.821, 468.75)Temperatura (degC), Punto: (29.128, 468.75)Temperatura (degC), Punto: (29.564, 468.75)Temperatura (degC), Punto: (0, 492.19)Temperatura (degC), Punto: (15, 492.19)Temperatura (degC), Punto: (25.641, 492.19)Temperatura (degC), Punto: (27.821, 492.19)Temperatura (degC), Punto: (29.128, 492.19)Temperatura (degC), Punto: (29.564, 492.19)
18.000                   3.0000                   3.0000                   1.7000                   2000.0                   4000.0                   0.0000                   20.000                   20.000                   20.000                   20.000                   20.015                   20.050                   20.000                   20.000                   20.000                   20.000                   20.016                   20.052                   20.000                   20.000                   20.000                   20.000                   20.015                   20.051                   20.000                   20.000                   20.000                   20.000                   20.015                   20.051                   20.000                   20.000                   20.000                   20.000                   20.016                   20.052                   20.000                   20.000                   20.000                   20.000                   20.015                   20.050                   20.000                   20.000                   20.000                   20.000                   20.016                   20.052                   20.000                   20.000                   20.000                   20.000                   20.016                   20.052                   20.000                   20.000                   20.000                   20.000                   20.016                   20.052                   20.000                   20.000                   20.000                   20.000                   20.011                   20.042
18.000                   3.0000                   3.0000                   1.7000                   2000.0                   4000.0                   5.0000                   22.815                   32.882                   73.690                   89.232                   100.25                   103.35                   22.925                   33.394                   75.747                   91.999                   102.93                   106.03                   22.882                   33.185                   74.946                   90.718                   100.76                   103.74                   22.841                   33.020                   74.310                   90.052                   100.46                   103.55                   22.941                   33.477                   76.344                   92.747                   103.28                   106.31                   22.824                   32.914                   73.665                   89.307                   99.921                   103.05                   22.903                   33.252                   74.941                   91.044                   101.94                   105.05                   22.914                   33.329                   75.621                   91.817                   102.76                   105.89                   22.895                   33.201                   74.752                   90.522                   101.05                   104.09                   24.054                   33.901                   68.876                   81.561                   89.709                   92.098
18.000                   3.0000                   3.0000                   1.7000                   2000.0                   4000.0                   10.000                   41.501                   64.786                   123.04                   140.81                   151.96                   155.01                   42.090                   66.020                   125.65                   143.99                   155.59                   158.71                   41.799                   65.358                   124.01                   142.09                   153.62                   156.72                   41.599                   64.962                   123.07                   140.94                   152.22                   155.24                   42.165                   66.130                   125.67                   144.10                   155.75                   158.88                   41.600                   64.972                   123.29                   141.08                   152.22                   155.19                   41.964                   65.725                   125.16                   143.49                   155.10                   158.23                   41.965                   65.752                   125.26                   143.61                   155.20                   158.30                   41.556                   64.724                   122.61                   140.48                   151.80                   154.85                   42.646                   63.465                   110.47                   124.18                   132.78                   135.19
18.000                   3.0000                   3.0000                   1.7000                   2000.0                   4000.0                   15.000                   70.924                   102.15                   171.24                   191.25                   203.95                   207.27                   71.902                   103.62                   173.03                   193.29                   206.02                   209.31                   71.335                   102.64                   171.17                   191.17                   203.85                   206.98                   70.977                   102.07                   169.96                   189.66                   202.11                   205.32                   72.062                   103.90                   173.86                   194.52                   207.85                   211.19                   70.925                   101.92                   169.50                   189.10                   201.29                   204.46                   71.650                   103.22                   172.44                   192.60                   205.28                   208.60                   71.573                   103.14                   172.37                   192.51                   205.09                   208.39                   70.258                   100.72                   167.63                   187.25                   199.69                   202.92                   70.937                   97.453                   150.68                   165.42                   174.57                   176.99
18.000                   3.0000                   3.0000                   1.7000                   2000.0                   4000.0                   20.000                   105.78                   140.87                   214.42                   235.20                   248.36                   251.69                   107.02                   142.47                   215.90                   236.59                   249.46                   252.77                   106.03                   140.73                   211.64                   231.55                   243.88                   247.01                   105.66                   140.42                   212.31                   232.77                   245.63                   248.91                   107.31                   142.98                   217.16                   238.36                   251.82                   255.21                   105.35                   139.75                   210.51                   230.51                   242.91                   246.12                   106.49                   141.59                   214.03                   234.47                   247.28                   250.58                   106.25                   141.36                   214.05                   234.58                   247.37                   250.70                   103.55                   136.99                   205.94                   225.44                   237.69                   240.87                   103.00                   131.66                   186.39                   201.03                   210.04                   212.47
18.000                   3.0000                   3.0000                   1.7000                   2000.0                   4000.0                   25.000                   143.71                   180.33                   255.56                   276.86                   290.06                   293.34                   145.16                   182.27                   258.85                   280.74                   294.35                   297.72                   143.83                   180.22                   255.08                   276.53                   289.93                   293.28                   143.42                   179.82                   254.71                   276.11                   289.38                   292.68                   145.52                   182.84                   259.74                   281.69                   295.25                   298.60                   142.77                   178.72                   252.61                   273.68                   286.81                   290.07                   144.31                   181.02                   256.69                   278.35                   291.84                   295.17                   143.77                   180.37                   255.72                   277.24                   290.60                   293.91                   139.35                   173.94                   245.22                   265.59                   278.32                   281.51                   136.18                   165.72                   221.56                   236.39                   245.54                   248.01
18.000                   3.0000                   3.0000                   1.7000                   2000.0                   4000.0                   30.000                   181.23                   218.45                   293.64                   314.14                   326.40                   329.49                   182.93                   220.88                   298.52                   320.20                   333.28                   336.52                   181.22                   218.29                   293.39                   314.04                   326.57                   329.77                   180.79                   217.87                   293.05                   313.77                   326.16                   329.30                   183.25                   221.19                   298.02                   319.11                   331.58                   334.73                   179.81                   216.35                   290.16                   310.34                   322.56                   325.66                   181.65                   218.95                   294.64                   315.61                   328.21                   331.33                   180.73                   217.88                   293.16                   314.00                   326.45                   329.55                   174.63                   209.70                   281.29                   301.23                   313.29                   316.36                   169.95                   199.82                   255.29                   269.51                   277.92                   280.31
18.000                   3.0000                   3.0000                   1.7000                   2000.0                   4000.0                   35.000                   216.75                   253.61                   326.92                   346.16                   357.41                   360.34                   218.69                   256.46                   332.90                   353.94                   366.21                   369.34                   216.63                   253.43                   326.76                   346.12                   357.62                   360.68                   216.16                   252.94                   326.38                   345.95                   357.34                   360.38                   218.87                   256.46                   331.47                   351.31                   362.62                   365.62                   215.05                   251.36                   323.47                   342.45                   353.69                   356.71                   217.04                   254.10                   328.35                   348.49                   360.14                   363.12                   215.53                   252.26                   325.53                   345.25                   356.63                   359.61                   208.12                   242.97                   313.61                   332.99                   344.36                   347.38                   202.40                   231.99                   286.53                   300.17                   308.06                   310.41
18.000                   3.0000                   3.0000                   1.7000                   2000.0                   4000.0                   40.000                   250.75                   286.82                   357.46                   375.09                   385.13                   387.86                   252.84                   289.88                   363.71                   383.57                   394.55                   397.47                   250.56                   286.79                   358.47                   376.80                   387.43                   390.40                   250.04                   286.12                   357.27                   375.59                   385.86                   388.74                   252.90                   289.73                   362.50                   381.11                   391.13                   393.94                   248.93                   284.72                   355.02                   372.76                   382.92                   385.82                   251.00                   287.54                   360.29                   379.58                   390.14                   392.92                   248.67                   284.49                   354.75                   373.00                   383.07                   385.86                   240.28                   274.56                   343.46                   361.98                   372.33                   375.18                   234.03                   263.13                   316.70                   329.94                   337.46                   339.77
18.000                   3.0000                   3.0000                   1.7000                   2000.0                   4000.0                   45.000                   284.77                   322.40                   399.70                   420.94                   433.46                   436.56                   286.99                   325.59                   405.87                   428.91                   442.17                   445.42                   284.49                   322.34                   400.79                   422.70                   435.71                   438.99                   283.94                   321.60                   399.39                   421.16                   433.86                   437.06                   286.90                   325.30                   404.84                   427.06                   439.72                   442.90                   282.95                   320.43                   397.68                   419.06                   431.67                   434.89                   285.00                   323.23                   402.84                   425.54                   438.55                   441.71                   281.78                   319.07                   395.82                   417.41                   429.89                   433.04                   272.07                   307.49                   381.18                   402.14                   414.33                   417.42                   264.07                   293.74                   349.78                   364.36                   372.98                   375.38
18.000                   3.0000                   3.0000                   1.7000                   2000.0                   4000.0                   50.000                   318.80                   359.25                   448.24                   475.92                   492.91                   496.69                   321.14                   362.55                   454.15                   482.74                   500.19                   504.05                   318.40                   359.06                   448.83                   476.80                   493.95                   497.77                   317.85                   358.33                   447.56                   475.33                   492.36                   496.16                   320.89                   362.12                   453.27                   481.72                   499.16                   503.01                   317.04                   357.41                   446.33                   473.98                   490.95                   494.74                   319.03                   360.13                   451.13                   479.52                   496.89                   500.75                   314.86                   354.92                   443.28                   470.81                   487.72                   491.50                   303.66                   341.14                   423.14                   448.32                   463.90                   467.44                   293.26                   324.07                   384.43                   401.29                   411.79                   414.36
18.000                   3.0000                   3.0000                   1.7000                   2000.0                   4000.0                   55.000                   353.42                   396.58                   491.40                   520.51                   537.99                   541.82                   355.82                   399.94                   497.34                   527.32                   545.25                   549.13                   352.92                   396.31                   491.93                   521.31                   538.96                   542.82                   352.37                   395.57                   490.66                   519.86                   537.37                   541.18                   355.45                   399.41                   496.48                   526.40                   544.31                   548.17                   351.70                   394.77                   489.29                   518.22                   535.51                   539.30                   353.62                   397.42                   493.94                   523.54                   541.29                   545.16                   348.46                   391.14                   484.94                   513.69                   531.02                   534.82                   335.34                   374.71                   460.40                   486.32                   502.12                   505.67                   322.41                   354.47                   417.18                   434.55                   445.25                   447.81
18.000                   3.0000                   3.0000                   1.7000                   2000.0                   4000.0                   60.000                   387.88                   433.24                   532.32                   562.18                   579.55                   583.32                   390.30                   436.59                   538.18                   568.89                   586.70                   590.51                   387.33                   432.94                   532.92                   563.10                   580.88                   584.71                   386.76                   432.16                   531.53                   561.52                   578.96                   582.72                   389.85                   436.00                   537.32                   567.98                   585.74                   589.52                   386.19                   431.42                   530.09                   559.76                   576.93                   580.64                   388.03                   433.97                   534.46                   564.68                   582.20                   585.99                   381.91                   426.64                   524.30                   553.70                   570.88                   574.61                   366.75                   407.62                   495.95                   522.31                   538.02                   541.56                   351.64                   384.71                   449.12                   466.84                   477.67                   480.24
18.000                   3.0000                   3.0000                   1.7000                   2000.0                   4000.0                   65.000                   421.51                   468.67                   571.24                   601.85                   619.00                   622.70                   423.91                   471.97                   576.91                   608.36                   625.96                   629.68                   420.94                   468.40                   571.92                   602.88                   620.85                   624.65                   420.31                   467.49                   570.22                   600.93                   618.17                   621.85                   423.39                   471.32                   575.98                   607.32                   624.85                   628.56                   419.82                   466.82                   568.89                   599.31                   616.36                   620.02                   421.56                   469.22                   572.87                   603.73                   620.96                   624.67                   414.47                   460.85                   561.54                   591.54                   608.47                   612.13                   397.26                   439.30                   529.72                   556.46                   571.99                   575.48                   380.27                   414.05                   479.53                   497.43                   508.28                   510.85
18.000                   3.0000                   3.0000                   1.7000                   2000.0                   4000.0                   70.000                   454.38                   503.15                   608.92                   640.49                   657.47                   661.11                   456.73                   506.36                   614.36                   646.74                   664.20                   667.85                   453.82                   502.94                   609.66                   641.55                   659.86                   663.65                   453.08                   501.83                   607.51                   639.05                   656.10                   659.71                   456.16                   505.67                   613.29                   645.46                   662.85                   666.52                   452.68                   501.26                   606.44                   637.77                   654.82                   658.45                   454.28                   503.46                   609.97                   641.65                   658.69                   662.33                   446.23                   494.05                   597.45                   628.17                   644.92                   648.53                   426.98                   469.99                   562.32                   589.44                   604.75                   608.21                   408.31                   442.56                   508.70                   526.66                   537.43                   539.99
18.000                   3.0000                   3.0000                   1.7000                   2000.0                   4000.0                   75.000                   487.13                   537.46                   646.27                   678.74                   695.53                   699.12                   489.44                   540.58                   651.47                   684.74                   702.02                   705.61                   486.60                   537.31                   647.09                   679.86                   698.48                   702.26                   485.75                   536.00                   644.50                   676.82                   693.64                   697.19                   488.82                   539.83                   650.28                   683.21                   700.43                   704.06                   485.42                   535.52                   643.67                   675.85                   692.87                   696.47                   486.90                   537.54                   646.77                   679.22                   696.04                   699.61                   477.90                   527.11                   633.13                   664.53                   681.08                   684.64                   456.61                   500.59                   594.78                   622.30                   637.39                   640.80                   436.30                   471.00                   537.80                   555.81                   566.50                   569.04