% Model:              batchmodel_COIL_N_18_COIL_kr_3_COIL_kh_1_COIL_kturn_1.7_FUNZ_freq_6000_FUNZ_I_eff_4000.mph
% Version:            COMSOL 5.6.0.280
% Date:               Feb 2 2022, 04:31
% Table:              Tabella 1 - GRIGLIA_T
% COIL_N                 COIL_kr                  COIL_kh                  COIL_kturn               FUNZ_freq                FUNZ_I_eff               Time (s)                 Temperatura (degC), Punto: (0, 0)Temperatura (degC), Punto: (15, 0)Temperatura (degC), Punto: (27.483, 0)Temperatura (degC), Punto: (28.742, 0)Temperatura (degC), Punto: (29.497, 0)Temperatura (degC), Punto: (29.748, 0)Temperatura (degC), Punto: (0, 62.5)Temperatura (degC), Punto: (15, 62.5)Temperatura (degC), Punto: (27.483, 62.5)Temperatura (degC), Punto: (28.742, 62.5)Temperatura (degC), Punto: (29.497, 62.5)Temperatura (degC), Punto: (29.748, 62.5)Temperatura (degC), Punto: (0, 125)Temperatura (degC), Punto: (15, 125)Temperatura (degC), Punto: (27.483, 125)Temperatura (degC), Punto: (28.742, 125)Temperatura (degC), Punto: (29.497, 125)Temperatura (degC), Punto: (29.748, 125)Temperatura (degC), Punto: (0, 187.5)Temperatura (degC), Punto: (15, 187.5)Temperatura (degC), Punto: (27.483, 187.5)Temperatura (degC), Punto: (28.742, 187.5)Temperatura (degC), Punto: (29.497, 187.5)Temperatura (degC), Punto: (29.748, 187.5)Temperatura (degC), Punto: (0, 250)Temperatura (degC), Punto: (15, 250)Temperatura (degC), Punto: (27.483, 250)Temperatura (degC), Punto: (28.742, 250)Temperatura (degC), Punto: (29.497, 250)Temperatura (degC), Punto: (29.748, 250)Temperatura (degC), Punto: (0, 312.5)Temperatura (degC), Punto: (15, 312.5)Temperatura (degC), Punto: (27.483, 312.5)Temperatura (degC), Punto: (28.742, 312.5)Temperatura (degC), Punto: (29.497, 312.5)Temperatura (degC), Punto: (29.748, 312.5)Temperatura (degC), Punto: (0, 375)Temperatura (degC), Punto: (15, 375)Temperatura (degC), Punto: (27.483, 375)Temperatura (degC), Punto: (28.742, 375)Temperatura (degC), Punto: (29.497, 375)Temperatura (degC), Punto: (29.748, 375)Temperatura (degC), Punto: (0, 437.5)Temperatura (degC), Punto: (15, 437.5)Temperatura (degC), Punto: (27.483, 437.5)Temperatura (degC), Punto: (28.742, 437.5)Temperatura (degC), Punto: (29.497, 437.5)Temperatura (degC), Punto: (29.748, 437.5)Temperatura (degC), Punto: (0, 468.75)Temperatura (degC), Punto: (15, 468.75)Temperatura (degC), Punto: (27.483, 468.75)Temperatura (degC), Punto: (28.742, 468.75)Temperatura (degC), Punto: (29.497, 468.75)Temperatura (degC), Punto: (29.748, 468.75)Temperatura (degC), Punto: (0, 492.19)Temperatura (degC), Punto: (15, 492.19)Temperatura (degC), Punto: (27.483, 492.19)Temperatura (degC), Punto: (28.742, 492.19)Temperatura (degC), Punto: (29.497, 492.19)Temperatura (degC), Punto: (29.748, 492.19)
18.000                   3.0000                   1.0000                   1.7000                   6000.0                   4000.0                   0.0000                   20.000                   20.000                   20.000                   20.005                   20.355                   20.648                   20.000                   20.000                   20.000                   20.005                   20.355                   20.648                   20.000                   20.000                   20.000                   20.005                   20.355                   20.648                   20.000                   20.000                   20.000                   20.005                   20.354                   20.647                   20.000                   20.000                   20.000                   20.004                   20.337                   20.624                   20.000                   20.000                   20.000                   20.000                   20.168                   20.373                   20.000                   20.000                   20.000                   20.000                   20.019                   20.091                   20.000                   20.000                   20.000                   20.000                   20.001                   20.019                   20.000                   20.000                   20.000                   20.000                   20.000                   20.009                   20.000                   20.000                   20.000                   20.000                   20.000                   20.003
18.000                   3.0000                   1.0000                   1.7000                   6000.0                   4000.0                   5.0000                   43.529                   144.09                   825.78                   1030.5                   1100.6                   1110.0                   43.431                   144.19                   837.58                   1043.2                   1110.8                   1119.7                   43.554                   144.74                   832.70                   1037.2                   1105.7                   1114.8                   43.459                   144.52                   856.89                   1065.9                   1130.6                   1138.9                   41.841                   136.99                   754.44                   950.42                   1034.2                   1047.5                   32.777                   92.112                   442.89                   523.17                   567.37                   576.24                   23.509                   40.282                   120.24                   132.95                   140.86                   143.08                   21.672                   29.974                   64.094                   67.697                   69.691                   70.300                   21.733                   30.297                   63.876                   66.617                   67.909                   68.272                   25.845                   37.469                   64.721                   66.478                   67.214                   67.403
18.000                   3.0000                   1.0000                   1.7000                   6000.0                   4000.0                   10.000                   178.79                   352.78                   1114.3                   1174.9                   1188.4                   1189.3                   179.07                   353.75                   1117.9                   1177.3                   1190.6                   1191.4                   179.51                   354.94                   1119.8                   1178.4                   1191.4                   1192.2                   179.34                   357.26                   1167.5                   1220.5                   1231.7                   1232.2                   172.41                   344.69                   1134.8                   1194.3                   1207.4                   1208.1                   123.52                   241.78                   664.34                   746.32                   790.93                   799.60                   51.075                   84.301                   176.26                   189.72                   198.11                   200.41                   33.129                   44.719                   69.257                   72.148                   73.906                   74.473                   32.973                   42.922                   60.115                   61.741                   62.692                   62.999                   37.533                   46.622                   59.137                   59.997                   60.461                   60.606
18.000                   3.0000                   1.0000                   1.7000                   6000.0                   4000.0                   15.000                   326.02                   508.79                   1170.3                   1199.8                   1205.1                   1204.8                   326.55                   509.69                   1170.9                   1200.2                   1205.4                   1205.1                   327.20                   511.32                   1172.5                   1201.3                   1206.4                   1206.1                   327.12                   514.15                   1189.7                   1216.8                   1221.3                   1220.8                   319.06                   502.53                   1169.1                   1198.8                   1204.1                   1203.7                   238.29                   367.34                   788.63                   876.20                   918.68                   926.19                   93.354                   132.46                   234.68                   249.51                   258.71                   261.14                   46.119                   56.676                   79.562                   82.453                   84.235                   84.812                   42.950                   50.181                   63.655                   65.185                   66.114                   66.420                   45.166                   50.839                   59.284                   60.033                   60.468                   60.609
18.000                   3.0000                   1.0000                   1.7000                   6000.0                   4000.0                   20.000                   449.39                   626.92                   1198.2                   1215.5                   1217.6                   1216.8                   449.95                   627.58                   1198.4                   1215.6                   1217.7                   1216.9                   450.63                   629.10                   1199.4                   1216.5                   1218.5                   1217.7                   450.51                   630.90                   1204.1                   1220.7                   1222.6                   1221.8                   442.82                   620.18                   1190.0                   1207.7                   1209.9                   1209.2                   342.24                   470.27                   876.81                   948.16                   980.60                   986.12                   139.88                   182.62                   293.40                   309.53                   319.47                   322.03                   58.622                   68.658                   91.364                   94.324                   96.158                   96.751                   50.757                   56.598                   68.778                   70.294                   71.228                   71.538                   50.497                   54.489                   61.333                   62.047                   62.475                   62.616
18.000                   3.0000                   1.0000                   1.7000                   6000.0                   4000.0                   25.000                   545.79                   718.46                   1224.2                   1236.4                   1237.2                   1236.1                   546.39                   719.02                   1224.4                   1236.6                   1237.3                   1236.3                   546.95                   720.34                   1225.1                   1237.2                   1237.9                   1236.9                   546.72                   721.16                   1226.4                   1238.4                   1239.0                   1238.0                   539.13                   709.68                   1212.3                   1224.8                   1225.6                   1224.6                   429.14                   555.19                   1001.3                   1058.5                   1076.5                   1078.6                   187.39                   232.39                   349.82                   367.00                   377.51                   380.13                   71.261                   81.259                   104.34                   107.39                   109.29                   109.90                   57.575                   62.925                   74.769                   76.298                   77.245                   77.560                   54.894                   58.249                   64.544                   65.251                   65.679                   65.821
18.000                   3.0000                   1.0000                   1.7000                   6000.0                   4000.0                   30.000                   624.74                   808.08                   1254.6                   1264.2                   1264.2                   1263.0                   625.26                   808.89                   1254.8                   1264.5                   1264.4                   1263.2                   625.68                   809.76                   1255.3                   1264.9                   1264.9                   1263.7                   625.35                   810.01                   1255.2                   1264.8                   1264.7                   1263.5                   617.90                   793.55                   1238.4                   1248.0                   1248.0                   1246.9                   504.34                   629.31                   1104.9                   1137.1                   1144.0                   1144.1                   233.73                   280.54                   403.37                   421.40                   432.33                   434.98                   84.333                   94.457                   118.12                   121.27                   123.23                   123.86                   64.271                   69.440                   81.247                   82.799                   83.761                   84.081                   59.209                   62.283                   68.358                   69.066                   69.497                   69.640
18.000                   3.0000                   1.0000                   1.7000                   6000.0                   4000.0                   35.000                   687.54                   905.95                   1291.7                   1299.9                   1299.3                   1298.0                   687.77                   907.34                   1292.1                   1300.3                   1299.7                   1298.4                   688.06                   907.92                   1292.4                   1300.6                   1300.0                   1298.7                   687.71                   907.09                   1291.5                   1299.7                   1299.1                   1297.8                   680.73                   885.73                   1270.1                   1278.1                   1277.5                   1276.2                   570.32                   694.17                   1146.7                   1165.7                   1168.5                   1167.9                   278.32                   326.53                   453.67                   472.33                   483.56                   486.22                   97.873                   108.20                   132.57                   135.83                   137.86                   138.51                   71.099                   76.228                   88.136                   89.714                   90.694                   91.019                   63.675                   66.629                   72.634                   73.346                   73.780                   73.925
18.000                   3.0000                   1.0000                   1.7000                   6000.0                   4000.0                   40.000                   737.06                   1001.5                   1335.6                   1342.8                   1341.7                   1340.2                   736.71                   1002.7                   1336.1                   1343.3                   1342.2                   1340.7                   737.03                   1003.1                   1336.3                   1343.4                   1342.3                   1340.8                   736.51                   1001.7                   1334.9                   1342.0                   1340.9                   1339.4                   728.49                   976.00                   1307.8                   1314.8                   1313.7                   1312.3                   627.15                   752.68                   1163.9                   1176.0                   1176.8                   1176.0                   320.80                   370.09                   500.49                   519.71                   531.18                   533.84                   111.87                   122.47                   147.61                   150.98                   153.08                   153.75                   78.173                   83.333                   95.403                   97.009                   98.007                   98.338                   68.392                   71.308                   77.314                   78.031                   78.469                   78.615
18.000                   3.0000                   1.0000                   1.7000                   6000.0                   4000.0                   45.000                   825.95                   1083.5                   1370.6                   1376.1                   1374.3                   1372.6                   825.89                   1084.4                   1370.9                   1376.4                   1374.6                   1372.9                   826.26                   1084.6                   1371.0                   1376.4                   1374.7                   1373.0                   825.28                   1083.2                   1369.8                   1375.3                   1373.5                   1371.8                   809.64                   1056.6                   1346.2                   1351.8                   1350.1                   1348.6                   670.79                   811.52                   1173.7                   1182.4                   1182.3                   1181.3                   359.44                   409.23                   541.25                   560.76                   572.36                   575.00                   126.51                   137.41                   163.31                   166.79                   168.96                   169.64                   85.755                   90.979                   103.23                   104.87                   105.88                   106.22                   73.621                   76.543                   82.586                   83.308                   83.750                   83.897
18.000                   3.0000                   1.0000                   1.7000                   6000.0                   4000.0                   50.000                   932.58                   1160.8                   1400.8                   1404.1                   1401.7                   1399.9                   933.22                   1161.3                   1400.9                   1404.3                   1401.8                   1400.0                   933.57                   1161.5                   1401.0                   1404.4                   1401.9                   1400.1                   932.09                   1160.1                   1400.2                   1403.6                   1401.1                   1399.3                   906.76                   1133.8                   1383.6                   1387.6                   1385.4                   1383.6                   710.38                   871.02                   1182.5                   1188.6                   1187.8                   1186.6                   396.81                   446.89                   580.00                   599.71                   611.38                   614.00                   141.34                   152.55                   179.21                   182.79                   185.02                   185.72                   93.506                   98.801                   111.25                   112.91                   113.94                   114.28                   79.022                   81.959                   88.046                   88.775                   89.219                   89.367
18.000                   3.0000                   1.0000                   1.7000                   6000.0                   4000.0                   55.000                   1033.9                   1222.9                   1420.3                   1422.7                   1419.8                   1417.9                   1034.5                   1223.4                   1420.5                   1422.8                   1420.0                   1418.1                   1034.8                   1223.5                   1420.5                   1422.9                   1420.0                   1418.1                   1033.2                   1222.2                   1419.7                   1422.1                   1419.2                   1417.4                   1005.2                   1197.1                   1405.3                   1407.8                   1405.0                   1403.2                   745.07                   927.18                   1194.0                   1198.5                   1197.2                   1195.9                   430.86                   480.84                   613.46                   633.28                   644.97                   647.56                   156.54                   168.04                   195.40                   199.08                   201.37                   202.09                   101.68                   107.05                   119.71                   121.40                   122.45                   122.80                   84.876                   87.836                   93.973                   94.706                   95.154                   95.303
18.000                   3.0000                   1.0000                   1.7000                   6000.0                   4000.0                   60.000                   1122.4                   1276.6                   1442.2                   1444.3                   1441.1                   1439.2                   1123.0                   1277.0                   1442.4                   1444.5                   1441.3                   1439.4                   1123.2                   1277.0                   1442.4                   1444.5                   1441.4                   1439.4                   1121.6                   1275.8                   1441.2                   1443.2                   1440.1                   1438.1                   1092.7                   1252.4                   1424.1                   1425.7                   1422.5                   1420.6                   793.81                   979.90                   1207.7                   1210.9                   1209.2                   1207.8                   462.94                   512.61                   644.15                   664.02                   675.71                   678.25                   171.87                   183.64                   211.69                   215.46                   217.81                   218.55                   110.11                   115.57                   128.45                   130.17                   131.24                   131.59                   91.008                   93.992                   100.18                   100.92                   101.37                   101.52
18.000                   3.0000                   1.0000                   1.7000                   6000.0                   4000.0                   65.000                   1199.0                   1322.6                   1470.5                   1472.6                   1469.2                   1467.2                   1199.5                   1322.9                   1470.8                   1472.8                   1469.5                   1467.4                   1199.6                   1323.0                   1470.8                   1472.9                   1469.5                   1467.5                   1198.1                   1321.8                   1468.9                   1470.9                   1467.5                   1465.5                   1169.7                   1300.1                   1443.5                   1444.7                   1441.3                   1439.3                   853.23                   1029.2                   1223.3                   1225.5                   1223.3                   1221.9                   493.21                   542.32                   672.23                   692.07                   703.72                   706.22                   187.29                   199.32                   228.04                   231.91                   234.32                   235.07                   118.79                   124.34                   137.43                   139.18                   140.27                   140.63                   97.402                   100.41                   106.64                   107.39                   107.84                   107.99
18.000                   3.0000                   1.0000                   1.7000                   6000.0                   4000.0                   70.000                   1262.2                   1360.9                   1513.4                   1515.3                   1511.6                   1509.3                   1262.6                   1361.2                   1513.6                   1515.5                   1511.8                   1509.5                   1262.7                   1361.2                   1513.6                   1515.6                   1511.8                   1509.6                   1261.2                   1360.1                   1511.4                   1513.3                   1509.6                   1507.4                   1234.2                   1339.6                   1469.5                   1470.9                   1467.4                   1465.3                   920.17                   1074.3                   1240.8                   1242.2                   1239.7                   1238.2                   521.47                   569.70                   697.35                   717.02                   728.62                   731.09                   202.75                   215.03                   244.42                   248.39                   250.86                   251.62                   127.74                   133.38                   146.70                   148.48                   149.58                   149.94                   104.09                   107.12                   113.40                   114.15                   114.61                   114.76
18.000                   3.0000                   1.0000                   1.7000                   6000.0                   4000.0                   75.000                   1312.2                   1390.6                   1555.7                   1556.6                   1552.2                   1549.7                   1312.5                   1390.7                   1555.9                   1556.8                   1552.3                   1549.9                   1312.6                   1390.7                   1555.9                   1556.8                   1552.3                   1549.9                   1311.2                   1389.6                   1553.6                   1554.5                   1550.0                   1547.6                   1285.2                   1370.0                   1506.5                   1507.5                   1503.5                   1501.3                   982.94                   1114.7                   1259.9                   1260.5                   1257.7                   1256.1                   547.32                   594.31                   719.02                   738.48                   750.03                   752.47                   218.17                   230.70                   260.75                   264.81                   267.34                   268.11                   136.99                   142.73                   156.27                   158.07                   159.20                   159.57                   111.13                   114.19                   120.52                   121.27                   121.73                   121.88