% Model:              batchmodel_COIL_N_18_COIL_kr_2.25_COIL_kh_3_COIL_kturn_1.7_FUNZ_freq_6000_FUNZ_I_eff_1000.mph
% Version:            COMSOL 5.6.0.280
% Date:               Feb 2 2022, 01:10
% Table:              Tabella 1 - GRIGLIA_T
% COIL_N                 COIL_kr                  COIL_kh                  COIL_kturn               FUNZ_freq                FUNZ_I_eff               Time (s)                 Temperatura (degC), Punto: (0, 0)Temperatura (degC), Punto: (15, 0)Temperatura (degC), Punto: (27.483, 0)Temperatura (degC), Punto: (28.742, 0)Temperatura (degC), Punto: (29.497, 0)Temperatura (degC), Punto: (29.748, 0)Temperatura (degC), Punto: (0, 62.5)Temperatura (degC), Punto: (15, 62.5)Temperatura (degC), Punto: (27.483, 62.5)Temperatura (degC), Punto: (28.742, 62.5)Temperatura (degC), Punto: (29.497, 62.5)Temperatura (degC), Punto: (29.748, 62.5)Temperatura (degC), Punto: (0, 125)Temperatura (degC), Punto: (15, 125)Temperatura (degC), Punto: (27.483, 125)Temperatura (degC), Punto: (28.742, 125)Temperatura (degC), Punto: (29.497, 125)Temperatura (degC), Punto: (29.748, 125)Temperatura (degC), Punto: (0, 187.5)Temperatura (degC), Punto: (15, 187.5)Temperatura (degC), Punto: (27.483, 187.5)Temperatura (degC), Punto: (28.742, 187.5)Temperatura (degC), Punto: (29.497, 187.5)Temperatura (degC), Punto: (29.748, 187.5)Temperatura (degC), Punto: (0, 250)Temperatura (degC), Punto: (15, 250)Temperatura (degC), Punto: (27.483, 250)Temperatura (degC), Punto: (28.742, 250)Temperatura (degC), Punto: (29.497, 250)Temperatura (degC), Punto: (29.748, 250)Temperatura (degC), Punto: (0, 312.5)Temperatura (degC), Punto: (15, 312.5)Temperatura (degC), Punto: (27.483, 312.5)Temperatura (degC), Punto: (28.742, 312.5)Temperatura (degC), Punto: (29.497, 312.5)Temperatura (degC), Punto: (29.748, 312.5)Temperatura (degC), Punto: (0, 375)Temperatura (degC), Punto: (15, 375)Temperatura (degC), Punto: (27.483, 375)Temperatura (degC), Punto: (28.742, 375)Temperatura (degC), Punto: (29.497, 375)Temperatura (degC), Punto: (29.748, 375)Temperatura (degC), Punto: (0, 437.5)Temperatura (degC), Punto: (15, 437.5)Temperatura (degC), Punto: (27.483, 437.5)Temperatura (degC), Punto: (28.742, 437.5)Temperatura (degC), Punto: (29.497, 437.5)Temperatura (degC), Punto: (29.748, 437.5)Temperatura (degC), Punto: (0, 468.75)Temperatura (degC), Punto: (15, 468.75)Temperatura (degC), Punto: (27.483, 468.75)Temperatura (degC), Punto: (28.742, 468.75)Temperatura (degC), Punto: (29.497, 468.75)Temperatura (degC), Punto: (29.748, 468.75)Temperatura (degC), Punto: (0, 492.19)Temperatura (degC), Punto: (15, 492.19)Temperatura (degC), Punto: (27.483, 492.19)Temperatura (degC), Punto: (28.742, 492.19)Temperatura (degC), Punto: (29.497, 492.19)Temperatura (degC), Punto: (29.748, 492.19)
18.000                   2.2500                   3.0000                   1.7000                   6000.0                   1000.0                   0.0000                   20.000                   20.000                   20.000                   20.000                   20.001                   20.014                   20.000                   20.000                   20.000                   20.000                   20.001                   20.016                   20.000                   20.000                   20.000                   20.000                   20.001                   20.015                   20.000                   20.000                   20.000                   20.000                   20.001                   20.014                   20.000                   20.000                   20.000                   20.000                   20.001                   20.016                   20.000                   20.000                   20.000                   20.000                   20.001                   20.014                   20.000                   20.000                   20.000                   20.000                   20.001                   20.016                   20.000                   20.000                   20.000                   20.000                   20.001                   20.016                   20.000                   20.000                   20.000                   20.000                   20.001                   20.016                   20.000                   20.000                   20.000                   20.000                   20.000                   20.011
18.000                   2.2500                   3.0000                   1.7000                   6000.0                   1000.0                   5.0000                   21.101                   23.367                   34.638                   36.612                   37.818                   38.197                   21.076                   23.297                   34.501                   36.591                   37.934                   38.382                   21.127                   23.458                   35.182                   37.349                   38.600                   38.998                   21.135                   23.443                   34.589                   36.579                   37.836                   38.252                   21.128                   23.422                   34.838                   36.956                   38.318                   38.776                   21.151                   23.524                   35.374                   37.426                   38.632                   39.012                   21.114                   23.425                   35.148                   37.332                   38.635                   39.030                   21.088                   23.337                   34.655                   36.748                   38.070                   38.509                   21.066                   23.281                   34.575                   36.683                   38.037                   38.490                   21.068                   23.063                   32.045                   33.621                   34.619                   34.952
18.000                   2.2500                   3.0000                   1.7000                   6000.0                   1000.0                   10.000                   24.593                   28.870                   41.404                   43.129                   44.224                   44.596                   24.772                   29.270                   43.028                   45.025                   46.247                   46.656                   24.833                   29.412                   43.745                   46.145                   47.900                   48.520                   24.838                   29.339                   42.547                   44.350                   45.448                   45.794                   24.864                   29.395                   42.930                   44.829                   46.011                   46.402                   24.841                   29.355                   42.792                   44.693                   45.906                   46.363                   24.850                   29.453                   43.707                   45.978                   47.346                   47.962                   24.738                   29.213                   42.735                   44.605                   45.734                   46.096                   24.647                   29.049                   42.586                   44.477                   45.563                   45.907                   24.385                   28.206                   38.668                   39.980                   40.768                   41.028
18.000                   2.2500                   3.0000                   1.7000                   6000.0                   1000.0                   15.000                   28.817                   33.282                   42.504                   43.784                   44.724                   45.092                   29.787                   35.308                   49.449                   51.435                   52.613                   53.012                   29.530                   34.679                   47.640                   49.883                   52.128                   52.920                   29.474                   34.494                   46.648                   48.326                   49.392                   49.720                   29.712                   35.131                   48.904                   50.747                   51.898                   52.280                   29.366                   34.142                   44.171                   45.460                   46.596                   47.085                   29.726                   35.046                   47.235                   48.684                   49.469                   50.014                   29.557                   34.887                   47.695                   49.216                   50.219                   50.555                   29.394                   34.609                   47.405                   49.075                   49.988                   50.279                   28.610                   32.916                   42.168                   43.178                   43.817                   44.066
18.000                   2.2500                   3.0000                   1.7000                   6000.0                   1000.0                   20.000                   34.420                   39.348                   51.717                   53.540                   54.713                   55.109                   36.220                   42.259                   57.552                   59.714                   61.074                   61.525                   35.621                   41.176                   55.176                   57.164                   58.444                   58.873                   35.463                   40.867                   54.467                   56.418                   57.655                   58.069                   35.908                   41.806                   56.979                   59.153                   60.526                   60.981                   35.247                   40.409                   53.139                   54.989                   56.184                   56.586                   36.018                   41.831                   56.386                   58.447                   59.769                   60.212                   35.726                   41.534                   56.165                   58.238                   59.553                   59.992                   35.513                   41.242                   55.902                   58.015                   59.356                   59.803                   34.155                   38.881                   49.972                   51.482                   52.436                   52.757
18.000                   2.2500                   3.0000                   1.7000                   6000.0                   1000.0                   25.000                   40.735                   46.197                   59.908                   61.826                   63.031                   63.429                   43.098                   49.515                   65.478                   67.686                   69.067                   69.523                   42.245                   48.188                   62.903                   64.910                   66.200                   66.633                   41.983                   47.772                   62.172                   64.177                   65.436                   65.856                   42.610                   48.926                   64.876                   67.106                   68.501                   68.962                   41.713                   47.321                   61.186                   63.116                   64.344                   64.752                   42.796                   49.012                   64.429                   66.538                   67.879                   68.323                   42.369                   48.564                   63.993                   66.130                   67.475                   67.922                   42.103                   48.249                   63.781                   65.961                   67.331                   67.785                   40.283                   45.389                   57.255                   58.815                   59.782                   60.104
18.000                   2.2500                   3.0000                   1.7000                   6000.0                   1000.0                   30.000                   47.399                   53.311                   67.970                   69.949                   71.175                   71.569                   50.161                   56.877                   73.323                   75.565                   76.961                   77.421                   49.111                   55.375                   70.625                   72.658                   73.958                   74.391                   48.754                   54.868                   69.852                   71.895                   73.170                   73.592                   49.548                   56.205                   72.711                   74.977                   76.387                   76.851                   48.469                   54.464                   69.170                   71.161                   72.411                   72.826                   49.784                   56.321                   72.320                   74.464                   75.824                   76.272                   49.229                   55.737                   71.736                   73.919                   75.283                   75.734                   48.889                   55.364                   71.490                   73.713                   75.100                   75.558                   46.671                   52.081                   64.461                   66.047                   67.021                   67.342
18.000                   2.2500                   3.0000                   1.7000                   6000.0                   1000.0                   35.000                   54.478                   60.647                   75.722                   77.701                   78.910                   79.294                   57.491                   64.390                   81.124                   83.388                   84.796                   85.259                   56.332                   62.800                   78.397                   80.464                   81.778                   82.213                   55.890                   62.207                   77.514                   79.576                   80.859                   81.282                   56.812                   63.677                   80.493                   82.778                   84.199                   84.665                   55.577                   61.799                   76.884                   78.902                   80.163                   80.579                   57.085                   63.823                   80.165                   82.338                   83.714                   84.168                   56.407                   63.113                   79.441                   81.651                   83.028                   83.483                   55.931                   62.598                   79.036                   81.281                   82.678                   83.138                   53.425                   59.011                   71.646                   73.243                   74.217                   74.534
18.000                   2.2500                   3.0000                   1.7000                   6000.0                   1000.0                   40.000                   61.717                   68.068                   83.355                   85.310                   86.489                   86.860                   64.923                   71.961                   88.908                   91.190                   92.609                   93.075                   63.688                   70.317                   86.189                   88.292                   89.621                   90.060                   63.165                   69.641                   85.170                   87.244                   88.532                   88.956                   64.200                   71.222                   88.253                   90.553                   91.982                   92.450                   62.821                   69.206                   84.495                   86.527                   87.793                   88.210                   64.506                   71.400                   87.993                   90.193                   91.583                   92.043                   63.707                   70.565                   87.132                   89.362                   90.749                   91.206                   63.071                   69.878                   86.519                   88.778                   90.183                   90.644                   60.318                   66.033                   78.824                   80.424                   81.396                   81.709
18.000                   2.2500                   3.0000                   1.7000                   6000.0                   1000.0                   45.000                   68.956                   75.489                   90.989                   92.919                   94.068                   94.427                   72.355                   79.532                   96.692                   98.993                   100.42                   100.89                   71.044                   77.834                   93.980                   96.120                   97.465                   97.907                   70.440                   77.074                   92.826                   94.912                   96.204                   96.629                   71.588                   78.768                   96.014                   98.329                   99.765                   100.24                   70.064                   76.614                   92.105                   94.152                   95.423                   95.841                   71.927                   78.977                   95.820                   98.048                   99.453                   99.918                   71.008                   78.018                   94.822                   97.073                   98.471                   98.929                   70.212                   77.159                   94.002                   96.276                   97.687                   98.150                   67.212                   73.054                   86.002                   87.605                   88.575                   88.884
18.000                   2.2500                   3.0000                   1.7000                   6000.0                   1000.0                   50.000                   76.260                   82.942                   98.603                   100.51                   101.63                   101.98                   79.829                   87.125                   104.48                   106.79                   108.23                   108.71                   78.443                   85.367                   101.74                   103.91                   105.27                   105.72                   77.776                   84.545                   100.49                   102.59                   103.89                   104.31                   79.026                   86.340                   103.78                   106.10                   107.55                   108.02                   77.355                   84.038                   99.671                   101.73                   103.00                   103.42                   79.384                   86.565                   103.62                   105.87                   107.29                   107.76                   78.352                   85.491                   102.50                   104.77                   106.18                   106.64                   77.386                   84.449                   101.46                   103.75                   105.17                   105.63                   74.156                   80.100                   93.164                   94.767                   95.732                   96.038
18.000                   2.2500                   3.0000                   1.7000                   6000.0                   1000.0                   55.000                   83.788                   90.504                   106.15                   108.04                   109.15                   109.49                   87.444                   94.793                   112.26                   114.59                   116.05                   116.52                   85.992                   92.955                   109.39                   111.58                   112.95                   113.40                   85.324                   92.148                   108.19                   110.30                   111.60                   112.03                   86.634                   94.002                   111.54                   113.89                   115.34                   115.82                   84.810                   91.516                   107.08                   109.14                   110.42                   110.83                   86.967                   94.191                   111.31                   113.57                   114.99                   115.46                   85.844                   93.034                   110.15                   112.43                   113.85                   114.31                   84.675                   91.774                   108.85                   111.15                   112.57                   113.04                   81.276                   87.233                   100.27                   101.86                   102.82                   103.12
18.000                   2.2500                   3.0000                   1.7000                   6000.0                   1000.0                   60.000                   91.315                   98.065                   113.70                   115.58                   116.67                   117.00                   95.060                   102.46                   120.04                   122.39                   123.86                   124.33                   93.540                   100.54                   117.05                   119.25                   120.63                   121.08                   92.872                   99.751                   115.88                   118.01                   119.32                   119.75                   94.243                   101.66                   119.31                   121.67                   123.13                   123.61                   92.265                   98.995                   114.49                   116.55                   117.83                   118.24                   94.549                   101.82                   119.00                   121.27                   122.70                   123.17                   93.337                   100.58                   117.79                   120.09                   121.52                   121.98                   91.965                   99.098                   116.24                   118.54                   119.98                   120.45                   88.397                   94.365                   107.37                   108.96                   109.90                   110.20
18.000                   2.2500                   3.0000                   1.7000                   6000.0                   1000.0                   65.000                   98.843                   105.63                   121.25                   123.11                   124.18                   124.51                   102.68                   110.13                   127.82                   130.19                   131.67                   132.15                   101.09                   108.13                   124.70                   126.92                   128.31                   128.76                   100.42                   107.35                   123.58                   125.71                   127.04                   127.47                   101.85                   109.33                   127.07                   129.45                   130.92                   131.40                   99.720                   106.47                   121.90                   123.96                   125.24                   125.65                   102.13                   109.44                   126.69                   128.97                   130.40                   130.88                   100.83                   108.12                   125.43                   127.75                   129.18                   129.65                   99.255                   106.42                   123.62                   125.94                   127.38                   127.85                   95.517                   101.50                   114.48                   116.05                   116.99                   117.28
18.000                   2.2500                   3.0000                   1.7000                   6000.0                   1000.0                   70.000                   106.37                   113.19                   128.80                   130.64                   131.70                   132.02                   110.29                   117.80                   135.61                   137.99                   139.48                   139.96                   108.64                   115.72                   132.36                   134.59                   135.99                   136.44                   107.97                   114.96                   131.27                   133.42                   134.75                   135.19                   109.46                   116.99                   134.84                   137.23                   138.71                   139.19                   107.18                   113.95                   129.31                   131.37                   132.65                   133.06                   109.71                   117.07                   134.38                   136.67                   138.11                   138.59                   108.32                   115.67                   133.08                   135.41                   136.85                   137.32                   106.54                   113.75                   131.01                   133.34                   134.79                   135.26                   102.64                   108.63                   121.58                   123.14                   124.07                   124.36
18.000                   2.2500                   3.0000                   1.7000                   6000.0                   1000.0                   75.000                   113.95                   120.80                   136.45                   138.28                   139.34                   139.66                   117.92                   125.47                   143.40                   145.80                   147.30                   147.78                   116.23                   123.35                   140.07                   142.32                   143.73                   144.18                   115.55                   122.59                   139.01                   141.17                   142.51                   142.95                   117.10                   124.67                   142.63                   145.04                   146.53                   147.02                   114.69                   121.49                   136.85                   138.91                   140.20                   140.62                   117.32                   124.71                   142.10                   144.41                   145.86                   146.34                   115.83                   123.22                   140.72                   143.07                   144.52                   144.99                   113.84                   121.07                   138.39                   140.73                   142.19                   142.66                   109.77                   115.77                   128.70                   130.25                   131.17                   131.46