% Model:              batchmodel_COIL_N_18_COIL_kr_3_COIL_kh_1_COIL_kturn_1.4_FUNZ_freq_2000_FUNZ_I_eff_2500.mph
% Version:            COMSOL 5.6.0.280
% Date:               Feb 2 2022, 03:32
% Table:              Tabella 1 - GRIGLIA_T
% COIL_N                 COIL_kr                  COIL_kh                  COIL_kturn               FUNZ_freq                FUNZ_I_eff               Time (s)                 Temperatura (degC), Punto: (0, 0)Temperatura (degC), Punto: (15, 0)Temperatura (degC), Punto: (25.641, 0)Temperatura (degC), Punto: (27.821, 0)Temperatura (degC), Punto: (29.128, 0)Temperatura (degC), Punto: (29.564, 0)Temperatura (degC), Punto: (0, 62.5)Temperatura (degC), Punto: (15, 62.5)Temperatura (degC), Punto: (25.641, 62.5)Temperatura (degC), Punto: (27.821, 62.5)Temperatura (degC), Punto: (29.128, 62.5)Temperatura (degC), Punto: (29.564, 62.5)Temperatura (degC), Punto: (0, 125)Temperatura (degC), Punto: (15, 125)Temperatura (degC), Punto: (25.641, 125)Temperatura (degC), Punto: (27.821, 125)Temperatura (degC), Punto: (29.128, 125)Temperatura (degC), Punto: (29.564, 125)Temperatura (degC), Punto: (0, 187.5)Temperatura (degC), Punto: (15, 187.5)Temperatura (degC), Punto: (25.641, 187.5)Temperatura (degC), Punto: (27.821, 187.5)Temperatura (degC), Punto: (29.128, 187.5)Temperatura (degC), Punto: (29.564, 187.5)Temperatura (degC), Punto: (0, 250)Temperatura (degC), Punto: (15, 250)Temperatura (degC), Punto: (25.641, 250)Temperatura (degC), Punto: (27.821, 250)Temperatura (degC), Punto: (29.128, 250)Temperatura (degC), Punto: (29.564, 250)Temperatura (degC), Punto: (0, 312.5)Temperatura (degC), Punto: (15, 312.5)Temperatura (degC), Punto: (25.641, 312.5)Temperatura (degC), Punto: (27.821, 312.5)Temperatura (degC), Punto: (29.128, 312.5)Temperatura (degC), Punto: (29.564, 312.5)Temperatura (degC), Punto: (0, 375)Temperatura (degC), Punto: (15, 375)Temperatura (degC), Punto: (25.641, 375)Temperatura (degC), Punto: (27.821, 375)Temperatura (degC), Punto: (29.128, 375)Temperatura (degC), Punto: (29.564, 375)Temperatura (degC), Punto: (0, 437.5)Temperatura (degC), Punto: (15, 437.5)Temperatura (degC), Punto: (25.641, 437.5)Temperatura (degC), Punto: (27.821, 437.5)Temperatura (degC), Punto: (29.128, 437.5)Temperatura (degC), Punto: (29.564, 437.5)Temperatura (degC), Punto: (0, 468.75)Temperatura (degC), Punto: (15, 468.75)Temperatura (degC), Punto: (25.641, 468.75)Temperatura (degC), Punto: (27.821, 468.75)Temperatura (degC), Punto: (29.128, 468.75)Temperatura (degC), Punto: (29.564, 468.75)Temperatura (degC), Punto: (0, 492.19)Temperatura (degC), Punto: (15, 492.19)Temperatura (degC), Punto: (25.641, 492.19)Temperatura (degC), Punto: (27.821, 492.19)Temperatura (degC), Punto: (29.128, 492.19)Temperatura (degC), Punto: (29.564, 492.19)
18.000                   3.0000                   1.0000                   1.4000                   2000.0                   2500.0                   0.0000                   20.000                   20.000                   20.000                   20.000                   20.066                   20.139                   20.000                   20.000                   20.000                   20.000                   20.066                   20.139                   20.000                   20.000                   20.000                   20.000                   20.065                   20.139                   20.000                   20.000                   20.000                   20.000                   20.063                   20.135                   20.000                   20.000                   20.000                   20.000                   20.037                   20.092                   20.000                   20.000                   20.000                   20.000                   20.004                   20.024                   20.000                   20.000                   20.000                   20.000                   20.000                   20.004                   20.000                   20.000                   20.000                   20.000                   20.000                   20.001                   20.000                   20.000                   20.000                   20.000                   20.000                   20.000                   20.000                   20.000                   20.000                   20.000                   20.000                   20.000
18.000                   3.0000                   1.0000                   1.4000                   2000.0                   2500.0                   5.0000                   28.487                   60.591                   194.16                   248.17                   282.39                   290.04                   28.436                   60.410                   193.65                   247.51                   281.69                   289.34                   27.911                   58.077                   186.92                   240.00                   273.88                   281.50                   27.523                   56.328                   178.90                   229.12                   261.41                   268.76                   24.995                   44.092                   123.06                   153.81                   174.41                   179.55                   21.060                   25.192                   43.699                   51.094                   56.274                   57.902                   20.047                   20.378                   23.745                   25.431                   26.723                   27.168                   19.758                   19.021                   18.719                   18.986                   19.366                   19.507                   19.831                   19.342                   18.927                   19.079                   19.262                   19.329                   19.766                   19.136                   18.207                   18.285                   18.364                   18.393
18.000                   3.0000                   1.0000                   1.4000                   2000.0                   2500.0                   10.000                   81.238                   156.55                   361.20                   434.54                   476.20                   484.64                   81.002                   156.20                   360.80                   434.07                   475.69                   484.13                   78.845                   152.63                   354.99                   427.44                   468.74                   477.12                   75.718                   145.84                   336.78                   404.58                   443.68                   451.76                   56.891                   103.09                   222.20                   261.34                   285.95                   291.65                   29.075                   40.898                   70.736                   79.673                   85.544                   87.324                   21.384                   23.925                   31.316                   33.315                   34.652                   35.115                   19.482                   19.912                   22.787                   23.206                   23.525                   23.656                   19.444                   19.437                   20.182                   20.470                   20.661                   20.729                   19.368                   19.357                   20.835                   20.742                   20.659                   20.664
18.000                   3.0000                   1.0000                   1.4000                   2000.0                   2500.0                   15.000                   164.96                   265.63                   525.43                   617.94                   666.62                   675.90                   164.58                   265.20                   524.66                   616.88                   665.71                   675.08                   161.52                   261.40                   519.43                   611.37                   660.02                   669.33                   154.36                   249.46                   492.80                   578.68                   625.27                   634.37                   110.66                   173.54                   321.55                   369.81                   398.87                   405.19                   44.549                   61.600                   97.739                   107.98                   114.60                   116.54                   24.795                   28.873                   37.522                   39.855                   41.357                   41.861                   20.287                   21.671                   24.748                   25.483                   25.944                   26.100                   19.618                   20.120                   21.333                   21.672                   21.890                   21.965                   19.507                   19.975                   20.995                   21.213                   21.297                   21.325
18.000                   3.0000                   1.0000                   1.4000                   2000.0                   2500.0                   20.000                   262.11                   375.61                   661.81                   760.23                   811.89                   821.14                   261.64                   374.93                   658.10                   754.54                   807.40                   817.25                   258.52                   371.86                   659.83                   760.35                   813.57                   823.26                   247.51                   356.38                   634.76                   730.23                   781.58                   791.67                   177.10                   250.19                   423.59                   481.19                   514.46                   521.31                   65.834                   85.994                   127.05                   138.45                   145.84                   147.95                   29.798                   34.519                   43.785                   46.285                   47.864                   48.396                   21.946                   23.650                   27.111                   27.688                   28.125                   28.282                   20.347                   21.082                   22.428                   22.789                   23.020                   23.099                   20.059                   20.608                   21.487                   21.788                   21.840                   21.865
18.000                   3.0000                   1.0000                   1.4000                   2000.0                   2500.0                   25.000                   357.27                   476.32                   787.89                   921.90                   981.42                   990.95                   356.66                   475.06                   779.42                   911.14                   971.19                   980.91                   354.09                   473.63                   787.66                   923.08                   983.16                   992.79                   340.39                   456.62                   754.93                   880.09                   940.09                   950.02                   247.35                   327.88                   520.20                   583.28                   617.82                   624.69                   90.745                   112.79                   157.16                   169.59                   177.54                   179.75                   35.569                   40.364                   49.655                   52.235                   53.888                   54.435                   23.733                   25.148                   27.823                   28.579                   29.062                   29.226                   21.288                   21.980                   23.263                   23.619                   23.848                   23.926                   20.611                   20.876                   21.228                   21.371                   21.470                   21.501
18.000                   3.0000                   1.0000                   1.4000                   2000.0                   2500.0                   30.000                   443.33                   567.12                   984.87                   1108.8                   1139.7                   1142.2                   442.18                   561.76                   883.46                   993.83                   1036.3                   1042.3                   440.45                   561.49                   889.82                   1001.2                   1043.5                   1049.4                   425.53                   544.69                   882.65                   1008.5                   1054.9                   1061.3                   316.04                   401.50                   598.72                   660.70                   694.23                   700.72                   117.53                   140.88                   186.84                   199.37                   207.28                   209.45                   41.745                   46.709                   56.202                   58.722                   60.319                   60.846                   25.385                   26.718                   29.321                   30.037                   30.494                   30.649                   22.189                   22.841                   24.098                   24.436                   24.650                   24.723                   21.070                   21.304                   21.761                   21.882                   21.960                   21.987
18.000                   3.0000                   1.0000                   1.4000                   2000.0                   2500.0                   35.000                   520.92                   650.45                   1109.6                   1169.9                   1180.2                   1179.7                   518.16                   634.66                   936.35                   1008.4                   1033.4                   1036.4                   517.02                   633.70                   924.07                   992.33                   1018.2                   1021.6                   501.90                   622.49                   1024.9                   1115.1                   1135.1                   1136.1                   380.99                   467.08                   656.64                   715.00                   746.34                   752.32                   145.29                   169.19                   215.36                   227.84                   235.71                   237.84                   48.321                   53.364                   62.793                   65.270                   66.837                   67.354                   27.054                   28.406                   30.988                   31.683                   32.125                   32.274                   23.065                   23.709                   24.935                   25.258                   25.464                   25.533                   21.568                   21.847                   22.337                   22.463                   22.544                   22.570
18.000                   3.0000                   1.0000                   1.4000                   2000.0                   2500.0                   40.000                   590.87                   724.68                   1147.8                   1180.0                   1183.5                   1182.1                   585.18                   694.30                   971.99                   1024.0                   1040.2                   1041.8                   583.97                   690.68                   939.40                   987.29                   1006.0                   1008.5                   570.45                   692.73                   1107.1                   1153.6                   1161.0                   1160.3                   439.76                   523.24                   701.95                   757.94                   788.89                   794.74                   173.11                   197.11                   243.69                   256.45                   264.53                   266.69                   55.201                   60.244                   69.686                   72.181                   73.766                   74.289                   28.796                   30.162                   32.756                   33.448                   33.889                   34.039                   23.953                   24.596                   25.807                   26.128                   26.333                   26.403                   22.152                   22.462                   22.994                   23.121                   23.199                   23.225
18.000                   3.0000                   1.0000                   1.4000                   2000.0                   2500.0                   45.000                   651.18                   794.28                   1156.2                   1175.6                   1176.0                   1174.2                   642.10                   742.99                   1006.6                   1046.1                   1056.7                   1057.2                   640.21                   735.29                   962.37                   1000.9                   1015.4                   1017.1                   630.85                   757.13                   1133.9                   1160.1                   1162.4                   1160.9                   491.60                   571.24                   741.53                   799.50                   831.24                   836.93                   200.40                   224.48                   271.89                   284.99                   293.27                   295.46                   62.327                   67.388                   76.932                   79.466                   81.078                   81.609                   30.600                   31.971                   34.574                   35.269                   35.712                   35.863                   24.872                   25.514                   26.725                   27.047                   27.252                   27.321                   22.803                   23.125                   23.668                   23.796                   23.874                   23.900
18.000                   3.0000                   1.0000                   1.4000                   2000.0                   2500.0                   50.000                   699.60                   861.78                   1153.1                   1165.6                   1164.4                   1162.5                   688.12                   790.37                   1039.8                   1069.2                   1075.5                   1075.2                   685.42                   776.76                   994.94                   1027.1                   1037.4                   1038.2                   681.51                   823.18                   1140.1                   1155.8                   1155.4                   1153.6                   537.45                   612.69                   778.77                   838.65                   869.35                   874.68                   226.95                   251.27                   299.41                   312.73                   321.14                   323.33                   69.711                   74.818                   84.487                   87.058                   88.693                   89.230                   32.460                   33.834                   36.445                   37.142                   37.587                   37.737                   25.830                   26.472                   27.684                   28.006                   28.211                   28.280                   23.500                   23.826                   24.371                   24.499                   24.577                   24.603
18.000                   3.0000                   1.0000                   1.4000                   2000.0                   2500.0                   55.000                   735.17                   918.35                   1147.2                   1155.6                   1153.5                   1151.5                   722.97                   843.53                   1070.2                   1090.7                   1093.4                   1092.4                   719.80                   823.84                   1036.8                   1062.4                   1067.8                   1067.4                   721.27                   889.52                   1140.8                   1150.6                   1148.9                   1146.9                   578.01                   648.73                   813.85                   871.45                   899.91                   904.70                   252.76                   277.30                   325.90                   339.35                   347.80                   349.98                   77.357                   82.523                   92.305                   94.906                   96.560                   97.102                   34.376                   35.754                   38.370                   39.068                   39.513                   39.664                   26.828                   27.470                   28.682                   29.004                   29.208                   29.277                   24.236                   24.563                   25.106                   25.233                   25.311                   25.337
18.000                   3.0000                   1.0000                   1.4000                   2000.0                   2500.0                   60.000                   772.65                   963.34                   1143.3                   1148.9                   1146.1                   1144.1                   753.61                   896.17                   1094.7                   1108.2                   1108.3                   1106.9                   748.57                   874.76                   1072.7                   1090.5                   1092.3                   1091.1                   756.89                   943.97                   1141.0                   1147.1                   1144.4                   1142.3                   613.53                   680.12                   844.53                   898.74                   924.82                   929.07                   277.76                   302.46                   351.48                   365.07                   373.59                   375.75                   85.246                   90.471                   100.37                   103.01                   104.68                   105.23                   36.356                   37.738                   40.363                   41.063                   41.510                   41.661                   27.868                   28.511                   29.724                   30.046                   30.250                   30.320                   25.009                   25.335                   25.876                   26.003                   26.080                   26.106
18.000                   3.0000                   1.0000                   1.4000                   2000.0                   2500.0                   65.000                   816.48                   1000.2                   1141.7                   1145.4                   1142.2                   1140.1                   788.78                   947.43                   1114.0                   1122.2                   1120.6                   1118.8                   780.29                   927.24                   1102.1                   1112.7                   1111.9                   1110.3                   798.10                   989.65                   1141.6                   1145.3                   1142.1                   1140.0                   644.39                   707.17                   871.43                   921.28                   944.85                   948.58                   301.92                   326.76                   376.14                   389.85                   398.42                   400.57                   93.362                   98.649                   108.68                   111.35                   113.05                   113.61                   38.402                   39.790                   42.427                   43.132                   43.580                   43.733                   28.951                   29.595                   30.811                   31.134                   31.339                   31.409                   25.819                   26.143                   26.683                   26.809                   26.886                   26.912
18.000                   3.0000                   1.0000                   1.4000                   2000.0                   2500.0                   70.000                   873.72                   1032.2                   1143.8                   1145.8                   1142.2                   1140.0                   838.80                   995.09                   1128.5                   1132.9                   1130.2                   1128.2                   825.07                   978.48                   1121.5                   1127.3                   1125.0                   1123.1                   855.67                   1027.3                   1144.5                   1146.4                   1142.7                   1140.5                   671.10                   730.58                   894.81                   940.06                   961.27                   964.54                   325.20                   350.16                   399.87                   413.68                   422.29                   424.42                   101.68                   107.03                   117.21                   119.93                   121.66                   122.22                   40.521                   41.916                   44.571                   45.280                   45.733                   45.886                   30.079                   30.724                   31.945                   32.269                   32.476                   32.546                   26.666                   26.989                   27.528                   27.654                   27.731                   27.757
18.000                   3.0000                   1.0000                   1.4000                   2000.0                   2500.0                   75.000                   931.76                   1061.9                   1148.5                   1149.0                   1145.0                   1142.7                   899.28                   1037.5                   1140.6                   1142.4                   1138.7                   1136.6                   884.35                   1024.7                   1136.4                   1139.0                   1135.6                   1133.5                   917.77                   1059.8                   1149.3                   1149.7                   1145.5                   1143.3                   694.13                   752.88                   916.67                   957.27                   976.09                   978.90                   347.60                   372.66                   422.59                   436.46                   445.07                   447.18                   110.17                   115.60                   125.93                   128.70                   130.46                   131.03                   42.719                   44.124                   46.798                   47.513                   47.969                   48.124                   31.253                   31.901                   33.128                   33.455                   33.663                   33.733                   27.551                   27.874                   28.413                   28.539                   28.616                   28.642