% Model:              batchmodel_COIL_N_18_COIL_kr_1.5_COIL_kh_3_COIL_kturn_1.4_FUNZ_freq_10000_FUNZ_I_eff_4000.mph
% Version:            COMSOL 5.6.0.280
% Date:               Feb 1 2022, 18:34
% Table:              Tabella 1 - GRIGLIA_T
% COIL_N                 COIL_kr                  COIL_kh                  COIL_kturn               FUNZ_freq                FUNZ_I_eff               Time (s)                 Temperatura (degC), Punto: (0, 0)Temperatura (degC), Punto: (15, 0)Temperatura (degC), Punto: (28.051, 0)Temperatura (degC), Punto: (29.025, 0)Temperatura (degC), Punto: (29.61, 0)Temperatura (degC), Punto: (29.805, 0)Temperatura (degC), Punto: (0, 62.5)Temperatura (degC), Punto: (15, 62.5)Temperatura (degC), Punto: (28.051, 62.5)Temperatura (degC), Punto: (29.025, 62.5)Temperatura (degC), Punto: (29.61, 62.5)Temperatura (degC), Punto: (29.805, 62.5)Temperatura (degC), Punto: (0, 125)Temperatura (degC), Punto: (15, 125)Temperatura (degC), Punto: (28.051, 125)Temperatura (degC), Punto: (29.025, 125)Temperatura (degC), Punto: (29.61, 125)Temperatura (degC), Punto: (29.805, 125)Temperatura (degC), Punto: (0, 187.5)Temperatura (degC), Punto: (15, 187.5)Temperatura (degC), Punto: (28.051, 187.5)Temperatura (degC), Punto: (29.025, 187.5)Temperatura (degC), Punto: (29.61, 187.5)Temperatura (degC), Punto: (29.805, 187.5)Temperatura (degC), Punto: (0, 250)Temperatura (degC), Punto: (15, 250)Temperatura (degC), Punto: (28.051, 250)Temperatura (degC), Punto: (29.025, 250)Temperatura (degC), Punto: (29.61, 250)Temperatura (degC), Punto: (29.805, 250)Temperatura (degC), Punto: (0, 312.5)Temperatura (degC), Punto: (15, 312.5)Temperatura (degC), Punto: (28.051, 312.5)Temperatura (degC), Punto: (29.025, 312.5)Temperatura (degC), Punto: (29.61, 312.5)Temperatura (degC), Punto: (29.805, 312.5)Temperatura (degC), Punto: (0, 375)Temperatura (degC), Punto: (15, 375)Temperatura (degC), Punto: (28.051, 375)Temperatura (degC), Punto: (29.025, 375)Temperatura (degC), Punto: (29.61, 375)Temperatura (degC), Punto: (29.805, 375)Temperatura (degC), Punto: (0, 437.5)Temperatura (degC), Punto: (15, 437.5)Temperatura (degC), Punto: (28.051, 437.5)Temperatura (degC), Punto: (29.025, 437.5)Temperatura (degC), Punto: (29.61, 437.5)Temperatura (degC), Punto: (29.805, 437.5)Temperatura (degC), Punto: (0, 468.75)Temperatura (degC), Punto: (15, 468.75)Temperatura (degC), Punto: (28.051, 468.75)Temperatura (degC), Punto: (29.025, 468.75)Temperatura (degC), Punto: (29.61, 468.75)Temperatura (degC), Punto: (29.805, 468.75)Temperatura (degC), Punto: (0, 492.19)Temperatura (degC), Punto: (15, 492.19)Temperatura (degC), Punto: (28.051, 492.19)Temperatura (degC), Punto: (29.025, 492.19)Temperatura (degC), Punto: (29.61, 492.19)Temperatura (degC), Punto: (29.805, 492.19)
18.000                   1.5000                   3.0000                   1.4000                   10000                    4000.0                   0.0000                   20.000                   20.000                   20.000                   20.000                   20.124                   20.339                   20.000                   20.000                   20.000                   20.000                   20.179                   20.440                   20.000                   20.000                   20.000                   20.000                   20.193                   20.465                   20.000                   20.000                   20.000                   20.000                   20.174                   20.432                   20.000                   20.000                   20.000                   20.000                   20.124                   20.340                   20.000                   20.000                   20.000                   20.000                   20.183                   20.447                   20.000                   20.000                   20.000                   20.000                   20.192                   20.465                   20.000                   20.000                   20.000                   20.000                   20.169                   20.423                   20.000                   20.000                   20.000                   20.000                   20.193                   20.465                   20.000                   20.000                   20.000                   20.000                   20.163                   20.414
18.000                   1.5000                   3.0000                   1.4000                   10000                    4000.0                   5.0000                   30.090                   68.597                   302.37                   337.72                   359.39                   364.60                   31.018                   74.688                   352.33                   397.85                   425.51                   431.57                   31.946                   79.289                   380.53                   430.00                   459.40                   465.77                   31.059                   74.966                   354.43                   398.18                   424.30                   430.07                   29.948                   68.554                   306.79                   343.74                   365.77                   370.86                   31.180                   75.487                   358.64                   404.86                   432.06                   438.12                   31.953                   79.278                   380.32                   428.74                   457.42                   463.58                   30.948                   74.277                   351.67                   396.89                   423.66                   429.49                   32.092                   79.240                   380.79                   430.52                   460.05                   466.38                   49.172                   96.098                   360.48                   400.62                   424.14                   429.64
18.000                   1.5000                   3.0000                   1.4000                   10000                    4000.0                   10.000                   94.229                   186.84                   550.89                   603.65                   633.21                   639.35                   98.912                   199.36                   610.93                   674.29                   709.43                   716.46                   103.93                   210.65                   650.33                   720.09                   760.18                   767.99                   99.174                   199.76                   611.47                   673.19                   706.70                   713.59                   94.054                   187.11                   555.27                   609.13                   639.01                   645.27                   99.660                   200.78                   610.82                   672.29                   707.58                   714.91                   103.77                   210.07                   648.19                   715.18                   753.39                   760.95                   98.637                   198.68                   607.84                   669.32                   703.03                   709.80                   105.46                   211.16                   638.78                   702.50                   738.45                   746.04                   142.12                   241.26                   616.69                   671.89                   702.02                   708.03
18.000                   1.5000                   3.0000                   1.4000                   10000                    4000.0                   15.000                   197.86                   317.21                   746.29                   813.38                   849.98                   856.93                   205.10                   331.36                   818.44                   906.02                   948.47                   956.03                   213.84                   346.71                   912.05                   1004.1                   1041.7                   1047.8                   205.63                   331.86                   814.91                   900.95                   942.89                   950.38                   197.71                   317.29                   745.37                   812.13                   848.60                   855.54                   206.26                   333.05                   824.89                   913.99                   956.88                   964.42                   213.25                   345.28                   903.05                   994.90                   1033.0                   1039.2                   204.84                   330.67                   810.95                   896.23                   937.93                   945.43                   217.22                   347.56                   885.14                   977.67                   1017.0                   1023.5                   254.65                   378.15                   799.99                   870.24                   906.11                   912.72
18.000                   1.5000                   3.0000                   1.4000                   10000                    4000.0                   20.000                   308.54                   434.64                   867.57                   930.00                   959.88                   965.21                   316.39                   449.23                   952.49                   1022.8                   1050.9                   1055.2                   327.57                   472.24                   1142.1                   1173.7                   1180.5                   1180.7                   317.10                   449.55                   932.34                   996.79                   1025.5                   1030.3                   308.28                   434.41                   866.65                   928.28                   957.76                   963.01                   317.82                   451.44                   941.78                   1005.7                   1033.3                   1037.8                   326.51                   470.27                   1144.8                   1177.2                   1184.2                   1184.4                   316.19                   448.24                   958.08                   1029.0                   1055.5                   1059.4                   331.92                   472.51                   1117.1                   1153.0                   1161.2                   1161.7                   357.54                   487.08                   920.75                   977.10                   1003.4                   1007.9
18.000                   1.5000                   3.0000                   1.4000                   10000                    4000.0                   25.000                   407.84                   529.46                   924.81                   966.91                   986.91                   990.46                   416.33                   546.28                   1100.9                   1133.0                   1140.3                   1140.6                   430.74                   578.41                   1118.5                   1137.0                   1140.5                   1140.3                   416.97                   545.04                   1049.0                   1091.2                   1102.2                   1103.1                   407.47                   528.93                   914.37                   956.08                   976.24                   979.86                   418.15                   548.63                   1058.8                   1094.2                   1103.3                   1104.0                   429.41                   576.70                   1123.9                   1142.4                   1145.8                   1145.5                   415.93                   545.32                   1086.7                   1120.1                   1128.1                   1128.5                   434.97                   578.43                   1120.2                   1139.4                   1143.1                   1142.9                   449.06                   573.98                   1026.9                   1065.5                   1077.0                   1078.3
18.000                   1.5000                   3.0000                   1.4000                   10000                    4000.0                   30.000                   490.72                   603.34                   934.08                   963.57                   978.14                   980.80                   500.96                   626.30                   1110.9                   1129.8                   1133.5                   1133.3                   518.20                   656.90                   1106.9                   1121.2                   1123.7                   1123.4                   501.13                   623.28                   1095.0                   1116.6                   1121.2                   1121.1                   490.33                   602.28                   932.03                   963.40                   978.97                   981.81                   503.14                   628.47                   1098.3                   1117.8                   1121.9                   1121.8                   516.79                   655.48                   1111.1                   1125.3                   1127.7                   1127.4                   500.21                   624.33                   1098.2                   1119.9                   1124.7                   1124.7                   522.05                   658.03                   1117.9                   1131.7                   1133.9                   1133.5                   526.88                   647.25                   1112.9                   1131.2                   1134.7                   1134.6
18.000                   1.5000                   3.0000                   1.4000                   10000                    4000.0                   35.000                   559.86                   660.67                   950.26                   974.07                   985.86                   988.01                   572.66                   690.23                   1114.6                   1128.1                   1130.4                   1130.0                   590.74                   715.62                   1112.2                   1123.3                   1124.8                   1124.4                   572.31                   687.11                   1106.9                   1121.4                   1124.0                   1123.7                   559.44                   659.40                   950.75                   975.66                   987.99                   990.23                   575.07                   692.69                   1111.8                   1125.1                   1127.3                   1126.9                   589.27                   714.05                   1112.5                   1123.7                   1125.4                   1124.9                   571.40                   686.61                   1107.9                   1123.7                   1126.7                   1126.4                   594.20                   717.54                   1118.5                   1129.2                   1130.6                   1130.1                   594.15                   711.69                   1138.7                   1148.9                   1150.1                   1149.5
18.000                   1.5000                   3.0000                   1.4000                   10000                    4000.0                   40.000                   617.44                   706.67                   971.58                   989.86                   998.50                   1000.0                   632.08                   741.75                   1121.0                   1130.8                   1132.0                   1131.4                   649.05                   764.63                   1122.0                   1130.3                   1131.0                   1130.4                   631.47                   738.83                   1116.9                   1127.1                   1128.4                   1127.9                   616.97                   705.51                   971.75                   990.59                   999.51                   1001.1                   634.53                   744.52                   1121.6                   1131.0                   1132.0                   1131.5                   647.58                   762.57                   1120.9                   1129.4                   1130.1                   1129.6                   630.30                   736.64                   1116.1                   1127.4                   1129.1                   1128.6                   652.00                   766.32                   1123.5                   1131.7                   1132.4                   1131.8                   651.22                   769.95                   1159.5                   1165.8                   1165.7                   1164.9
18.000                   1.5000                   3.0000                   1.4000                   10000                    4000.0                   45.000                   664.02                   743.96                   999.38                   1013.4                   1019.2                   1020.0                   679.48                   787.52                   1127.2                   1134.6                   1135.0                   1134.4                   694.24                   812.35                   1132.5                   1138.7                   1138.7                   1138.0                   678.80                   784.54                   1123.5                   1131.2                   1131.8                   1131.2                   663.51                   742.94                   998.99                   1013.5                   1019.4                   1020.3                   681.81                   791.40                   1128.6                   1135.7                   1136.0                   1135.3                   692.87                   809.66                   1131.3                   1137.6                   1137.7                   1137.0                   677.30                   780.34                   1121.6                   1130.1                   1130.9                   1130.3                   696.58                   813.28                   1131.7                   1137.9                   1137.9                   1137.2                   697.44                   831.50                   1175.5                   1179.7                   1178.9                   1178.0
18.000                   1.5000                   3.0000                   1.4000                   10000                    4000.0                   50.000                   700.61                   780.05                   1038.5                   1050.8                   1054.3                   1054.4                   715.11                   833.42                   1132.8                   1138.4                   1138.4                   1137.6                   726.50                   859.79                   1142.4                   1147.0                   1146.5                   1145.7                   714.48                   830.34                   1128.9                   1134.9                   1134.9                   1134.2                   700.05                   778.83                   1037.0                   1049.5                   1053.2                   1053.3                   717.11                   838.28                   1134.9                   1140.3                   1140.2                   1139.4                   725.43                   856.96                   1141.3                   1146.0                   1145.6                   1144.8                   712.84                   824.30                   1125.7                   1132.1                   1132.3                   1131.6                   728.14                   860.77                   1141.4                   1146.0                   1145.5                   1144.7                   731.23                   893.83                   1191.6                   1194.4                   1193.1                   1192.1
18.000                   1.5000                   3.0000                   1.4000                   10000                    4000.0                   55.000                   726.95                   820.51                   1071.9                   1081.0                   1082.5                   1082.2                   740.58                   876.73                   1138.7                   1143.0                   1142.5                   1141.7                   751.38                   903.99                   1152.1                   1155.5                   1154.6                   1153.7                   739.93                   873.60                   1134.8                   1139.3                   1138.9                   1138.1                   726.33                   819.05                   1070.7                   1080.0                   1081.7                   1081.3                   742.45                   882.02                   1141.6                   1145.8                   1145.2                   1144.4                   750.28                   901.44                   1151.2                   1154.6                   1153.8                   1153.0                   738.16                   866.77                   1130.4                   1135.2                   1134.9                   1134.2                   753.13                   906.33                   1152.0                   1155.4                   1154.5                   1153.6                   760.55                   950.81                   1208.6                   1210.4                   1208.7                   1207.7
18.000                   1.5000                   3.0000                   1.4000                   10000                    4000.0                   60.000                   747.60                   862.96                   1091.9                   1097.8                   1098.2                   1097.6                   763.73                   916.16                   1145.8                   1149.1                   1148.2                   1147.4                   778.50                   944.03                   1162.1                   1164.6                   1163.5                   1162.5                   762.85                   913.05                   1142.0                   1145.4                   1144.6                   1143.7                   746.85                   861.53                   1091.6                   1097.6                   1098.0                   1097.4                   766.09                   921.55                   1149.3                   1152.5                   1151.5                   1150.7                   776.95                   941.91                   1161.3                   1163.9                   1162.7                   1161.8                   760.52                   906.18                   1136.9                   1140.5                   1139.8                   1139.0                   782.05                   949.08                   1163.8                   1166.2                   1165.0                   1164.0                   801.20                   1001.6                   1226.7                   1227.7                   1225.8                   1224.7
18.000                   1.5000                   3.0000                   1.4000                   10000                    4000.0                   65.000                   768.95                   904.29                   1104.8                   1108.5                   1108.1                   1107.4                   794.26                   952.07                   1154.1                   1156.5                   1155.3                   1154.4                   817.73                   980.45                   1172.8                   1174.6                   1173.2                   1172.2                   792.75                   949.01                   1150.3                   1152.8                   1151.6                   1150.7                   768.03                   903.05                   1104.9                   1108.7                   1108.3                   1107.6                   798.05                   957.43                   1158.0                   1160.3                   1159.1                   1158.2                   815.53                   978.73                   1172.1                   1173.9                   1172.5                   1171.5                   788.94                   942.53                   1145.0                   1147.6                   1146.6                   1145.7                   825.89                   989.16                   1176.9                   1178.5                   1177.0                   1176.0                   862.75                   1047.9                   1245.9                   1246.3                   1244.2                   1243.0
18.000                   1.5000                   3.0000                   1.4000                   10000                    4000.0                   70.000                   801.43                   942.52                   1116.0                   1118.2                   1117.3                   1116.5                   835.08                   985.69                   1163.5                   1165.1                   1163.7                   1162.8                   864.80                   1014.2                   1184.4                   1185.6                   1183.9                   1182.9                   833.10                   982.73                   1159.6                   1161.3                   1159.9                   1159.0                   800.45                   941.48                   1116.2                   1118.5                   1117.6                   1116.8                   840.04                   990.99                   1167.7                   1169.3                   1167.9                   1166.9                   862.37                   1012.8                   1183.7                   1184.9                   1183.3                   1182.2                   828.11                   976.70                   1154.2                   1156.0                   1154.7                   1153.8                   878.41                   1026.9                   1191.5                   1192.4                   1190.7                   1189.6                   928.12                   1089.8                   1265.7                   1265.6                   1263.2                   1262.0
18.000                   1.5000                   3.0000                   1.4000                   10000                    4000.0                   75.000                   846.06                   977.47                   1126.0                   1127.4                   1126.1                   1125.2                   886.49                   1017.1                   1173.9                   1175.0                   1173.3                   1172.3                   919.36                   1045.4                   1196.8                   1197.6                   1195.7                   1194.6                   884.25                   1014.3                   1169.9                   1171.0                   1169.4                   1168.4                   845.11                   976.60                   1126.1                   1127.5                   1126.3                   1125.4                   892.25                   1022.3                   1178.5                   1179.5                   1177.8                   1176.8                   917.18                   1044.2                   1196.2                   1196.9                   1195.1                   1194.0                   878.50                   1008.8                   1164.5                   1165.7                   1164.1                   1163.1                   939.05                   1062.3                   1207.5                   1208.0                   1206.0                   1204.8                   995.72                   1127.4                   1286.2                   1285.6                   1283.0                   1281.6