% Model:              batchmodel_COIL_N_18_COIL_kr_1.5_COIL_kh_1_COIL_kturn_1.4_FUNZ_freq_10000_FUNZ_I_eff_2500.mph
% Version:            COMSOL 5.6.0.280
% Date:               Feb 1 2022, 13:16
% Table:              Tabella 1 - GRIGLIA_T
% COIL_N                 COIL_kr                  COIL_kh                  COIL_kturn               FUNZ_freq                FUNZ_I_eff               Time (s)                 Temperatura (degC), Punto: (0, 0)Temperatura (degC), Punto: (15, 0)Temperatura (degC), Punto: (28.051, 0)Temperatura (degC), Punto: (29.025, 0)Temperatura (degC), Punto: (29.61, 0)Temperatura (degC), Punto: (29.805, 0)Temperatura (degC), Punto: (0, 62.5)Temperatura (degC), Punto: (15, 62.5)Temperatura (degC), Punto: (28.051, 62.5)Temperatura (degC), Punto: (29.025, 62.5)Temperatura (degC), Punto: (29.61, 62.5)Temperatura (degC), Punto: (29.805, 62.5)Temperatura (degC), Punto: (0, 125)Temperatura (degC), Punto: (15, 125)Temperatura (degC), Punto: (28.051, 125)Temperatura (degC), Punto: (29.025, 125)Temperatura (degC), Punto: (29.61, 125)Temperatura (degC), Punto: (29.805, 125)Temperatura (degC), Punto: (0, 187.5)Temperatura (degC), Punto: (15, 187.5)Temperatura (degC), Punto: (28.051, 187.5)Temperatura (degC), Punto: (29.025, 187.5)Temperatura (degC), Punto: (29.61, 187.5)Temperatura (degC), Punto: (29.805, 187.5)Temperatura (degC), Punto: (0, 250)Temperatura (degC), Punto: (15, 250)Temperatura (degC), Punto: (28.051, 250)Temperatura (degC), Punto: (29.025, 250)Temperatura (degC), Punto: (29.61, 250)Temperatura (degC), Punto: (29.805, 250)Temperatura (degC), Punto: (0, 312.5)Temperatura (degC), Punto: (15, 312.5)Temperatura (degC), Punto: (28.051, 312.5)Temperatura (degC), Punto: (29.025, 312.5)Temperatura (degC), Punto: (29.61, 312.5)Temperatura (degC), Punto: (29.805, 312.5)Temperatura (degC), Punto: (0, 375)Temperatura (degC), Punto: (15, 375)Temperatura (degC), Punto: (28.051, 375)Temperatura (degC), Punto: (29.025, 375)Temperatura (degC), Punto: (29.61, 375)Temperatura (degC), Punto: (29.805, 375)Temperatura (degC), Punto: (0, 437.5)Temperatura (degC), Punto: (15, 437.5)Temperatura (degC), Punto: (28.051, 437.5)Temperatura (degC), Punto: (29.025, 437.5)Temperatura (degC), Punto: (29.61, 437.5)Temperatura (degC), Punto: (29.805, 437.5)Temperatura (degC), Punto: (0, 468.75)Temperatura (degC), Punto: (15, 468.75)Temperatura (degC), Punto: (28.051, 468.75)Temperatura (degC), Punto: (29.025, 468.75)Temperatura (degC), Punto: (29.61, 468.75)Temperatura (degC), Punto: (29.805, 468.75)Temperatura (degC), Punto: (0, 492.19)Temperatura (degC), Punto: (15, 492.19)Temperatura (degC), Punto: (28.051, 492.19)Temperatura (degC), Punto: (29.025, 492.19)Temperatura (degC), Punto: (29.61, 492.19)Temperatura (degC), Punto: (29.805, 492.19)
18.000                   1.5000                   1.0000                   1.4000                   10000                    2500.0                   0.0000                   20.000                   20.000                   20.000                   20.003                   20.416                   20.819                   20.000                   20.000                   20.000                   20.003                   20.421                   20.827                   20.000                   20.000                   20.000                   20.003                   20.427                   20.836                   20.000                   20.000                   20.000                   20.003                   20.423                   20.831                   20.000                   20.000                   20.000                   20.001                   20.253                   20.567                   20.000                   20.000                   20.000                   20.000                   20.001                   20.015                   20.000                   20.000                   20.000                   20.000                   20.000                   20.001                   20.000                   20.000                   20.000                   20.000                   20.000                   20.000                   20.000                   20.000                   20.000                   20.000                   20.000                   20.000                   20.000                   20.000                   20.000                   20.000                   20.000                   20.000
18.000                   1.5000                   1.0000                   1.4000                   10000                    2500.0                   5.0000                   41.958                   133.86                   811.23                   966.28                   1030.6                   1041.0                   41.939                   134.92                   863.38                   1033.2                   1091.9                   1100.2                   41.794                   134.22                   881.42                   1051.9                   1108.1                   1116.0                   41.881                   134.49                   848.47                   1017.8                   1078.9                   1087.8                   34.680                   100.61                   548.03                   625.39                   666.71                   674.93                   20.659                   24.025                   42.730                   44.785                   45.974                   46.360                   20.244                   21.551                   27.630                   28.043                   28.203                   28.255                   20.054                   20.302                   21.362                   21.437                   21.476                   21.489                   20.010                   20.055                   20.304                   20.336                   20.356                   20.363                   20.008                   20.037                   20.192                   20.211                   20.223                   20.227
18.000                   1.5000                   1.0000                   1.4000                   10000                    2500.0                   10.000                   169.37                   331.83                   917.65                   972.13                   995.26                   999.30                   170.31                   338.39                   1141.3                   1184.8                   1194.8                   1195.4                   169.79                   340.19                   1206.9                   1243.3                   1250.8                   1251.0                   169.84                   337.65                   1143.4                   1187.0                   1197.0                   1197.6                   127.61                   247.70                   672.26                   728.25                   758.80                   764.92                   27.071                   34.325                   51.914                   53.464                   54.400                   54.708                   21.999                   23.685                   26.667                   26.860                   26.972                   27.008                   20.378                   20.684                   21.290                   21.337                   21.365                   21.374                   20.102                   20.201                   20.464                   20.490                   20.505                   20.510                   20.060                   20.124                   20.292                   20.308                   20.318                   20.321
18.000                   1.5000                   1.0000                   1.4000                   10000                    2500.0                   15.000                   313.30                   481.87                   1102.1                   1131.6                   1138.1                   1138.4                   314.93                   489.40                   1145.7                   1168.5                   1173.0                   1172.9                   314.33                   491.90                   1169.9                   1190.3                   1194.0                   1193.7                   314.18                   488.70                   1148.4                   1171.1                   1175.5                   1175.3                   235.93                   357.08                   735.50                   785.22                   812.41                   817.69                   38.015                   45.712                   62.665                   64.159                   65.065                   65.363                   23.725                   24.940                   27.153                   27.324                   27.425                   27.459                   20.748                   20.999                   21.504                   21.546                   21.572                   21.581                   20.245                   20.352                   20.605                   20.629                   20.644                   20.649                   20.147                   20.218                   20.385                   20.401                   20.411                   20.414
18.000                   1.5000                   1.0000                   1.4000                   10000                    2500.0                   20.000                   430.72                   592.87                   1155.5                   1171.5                   1174.2                   1173.8                   432.36                   598.24                   1167.0                   1181.7                   1184.0                   1183.5                   431.63                   599.46                   1174.7                   1188.9                   1191.0                   1190.5                   431.51                   597.47                   1168.2                   1183.0                   1185.2                   1184.7                   327.25                   443.04                   793.21                   839.16                   863.10                   867.66                   51.029                   58.727                   75.735                   77.262                   78.191                   78.496                   25.113                   26.073                   28.012                   28.179                   28.280                   28.313                   21.078                   21.292                   21.755                   21.797                   21.822                   21.831                   20.397                   20.501                   20.749                   20.773                   20.787                   20.792                   20.247                   20.319                   20.486                   20.502                   20.511                   20.514
18.000                   1.5000                   1.0000                   1.4000                   10000                    2500.0                   25.000                   525.55                   679.32                   1186.3                   1197.0                   1198.1                   1197.5                   526.97                   683.09                   1190.8                   1201.3                   1202.3                   1201.6                   526.15                   683.18                   1193.6                   1204.0                   1205.0                   1204.4                   526.13                   682.17                   1191.2                   1201.8                   1202.8                   1202.2                   404.18                   515.09                   857.91                   897.47                   917.53                   921.30                   65.456                   73.178                   90.459                   92.029                   92.986                   93.301                   26.392                   27.231                   29.066                   29.233                   29.335                   29.369                   21.380                   21.574                   22.019                   22.060                   22.086                   22.095                   20.551                   20.653                   20.899                   20.922                   20.937                   20.942                   20.355                   20.427                   20.593                   20.609                   20.618                   20.622
18.000                   1.5000                   1.0000                   1.4000                   10000                    2500.0                   30.000                   599.64                   753.64                   1216.3                   1224.8                   1225.1                   1224.4                   600.76                   756.72                   1219.1                   1227.5                   1227.9                   1227.1                   599.95                   756.24                   1220.5                   1229.0                   1229.4                   1228.6                   599.99                   755.73                   1219.3                   1227.7                   1228.1                   1227.3                   467.55                   575.37                   932.66                   967.21                   982.71                   985.39                   81.033                   88.818                   106.44                   108.05                   109.04                   109.36                   27.728                   28.523                   30.334                   30.502                   30.605                   30.640                   21.671                   21.856                   22.294                   22.336                   22.362                   22.371                   20.710                   20.811                   21.057                   21.080                   21.095                   21.100                   20.470                   20.542                   20.709                   20.725                   20.734                   20.738
18.000                   1.5000                   1.0000                   1.4000                   10000                    2500.0                   35.000                   662.01                   829.05                   1248.7                   1255.7                   1255.6                   1254.7                   662.71                   830.92                   1250.8                   1257.9                   1257.8                   1256.9                   661.99                   830.16                   1251.6                   1258.8                   1258.7                   1257.8                   662.05                   829.78                   1250.8                   1257.9                   1257.8                   1256.9                   523.87                   629.41                   1009.6                   1040.3                   1051.0                   1052.3                   97.121                   104.98                   122.97                   124.63                   125.64                   125.97                   29.151                   29.930                   31.742                   31.913                   32.018                   32.053                   21.960                   22.141                   22.578                   22.620                   22.646                   22.655                   20.873                   20.974                   21.220                   21.244                   21.258                   21.263                   20.591                   20.663                   20.831                   20.846                   20.856                   20.859
18.000                   1.5000                   1.0000                   1.4000                   10000                    2500.0                   40.000                   706.64                   911.36                   1289.1                   1295.3                   1294.8                   1293.7                   706.70                   912.84                   1291.0                   1297.2                   1296.7                   1295.7                   706.12                   911.85                   1291.6                   1297.9                   1297.4                   1296.4                   706.16                   911.70                   1290.8                   1297.1                   1296.6                   1295.6                   571.25                   676.34                   1068.1                   1091.8                   1098.5                   1099.0                   113.51                   121.48                   139.84                   141.54                   142.57                   142.91                   30.790                   31.569                   33.400                   33.574                   33.680                   33.716                   22.258                   22.438                   22.875                   22.918                   22.944                   22.953                   21.044                   21.144                   21.391                   21.415                   21.430                   21.435                   20.720                   20.793                   20.960                   20.976                   20.985                   20.989
18.000                   1.5000                   1.0000                   1.4000                   10000                    2500.0                   45.000                   763.72                   992.07                   1330.9                   1336.0                   1335.0                   1333.8                   763.98                   993.22                   1332.4                   1337.6                   1336.6                   1335.5                   763.17                   992.17                   1332.9                   1338.2                   1337.2                   1336.1                   763.12                   992.07                   1332.2                   1337.5                   1336.5                   1335.3                   614.27                   721.37                   1114.5                   1132.2                   1136.1                   1136.0                   129.91                   137.97                   156.65                   158.38                   159.44                   159.79                   32.576                   33.360                   35.211                   35.387                   35.494                   35.530                   22.564                   22.744                   23.182                   23.225                   23.251                   23.260                   21.218                   21.319                   21.566                   21.591                   21.605                   21.610                   20.854                   20.927                   21.094                   21.110                   21.120                   21.123
18.000                   1.5000                   1.0000                   1.4000                   10000                    2500.0                   50.000                   835.04                   1070.1                   1371.4                   1375.3                   1373.8                   1372.5                   836.10                   1070.9                   1372.6                   1376.6                   1375.1                   1373.8                   834.81                   1069.9                   1373.1                   1377.2                   1375.7                   1374.4                   834.60                   1069.7                   1372.5                   1376.5                   1375.0                   1373.8                   653.19                   765.47                   1150.0                   1162.8                   1164.9                   1164.4                   146.25                   154.41                   173.35                   175.11                   176.19                   176.54                   34.514                   35.304                   37.176                   37.353                   37.462                   37.499                   22.880                   23.060                   23.500                   23.542                   23.569                   23.578                   21.398                   21.499                   21.747                   21.771                   21.786                   21.791                   20.993                   21.065                   21.233                   21.249                   21.258                   21.261
18.000                   1.5000                   1.0000                   1.4000                   10000                    2500.0                   55.000                   933.04                   1138.8                   1396.9                   1399.4                   1397.4                   1395.9                   934.11                   1139.4                   1397.8                   1400.3                   1398.3                   1396.9                   932.79                   1138.6                   1398.2                   1400.8                   1398.9                   1397.5                   932.28                   1138.2                   1397.7                   1400.3                   1398.3                   1396.9                   687.26                   813.24                   1175.1                   1185.0                   1186.2                   1185.6                   162.34                   170.55                   189.67                   191.45                   192.54                   192.89                   36.698                   37.497                   39.386                   39.565                   39.675                   39.712                   23.214                   23.394                   23.835                   23.878                   23.904                   23.913                   21.585                   21.686                   21.934                   21.958                   21.973                   21.978                   21.139                   21.211                   21.379                   21.394                   21.404                   21.407
18.000                   1.5000                   1.0000                   1.4000                   10000                    2500.0                   60.000                   1023.3                   1198.9                   1416.8                   1418.3                   1416.0                   1414.5                   1024.3                   1199.4                   1417.6                   1419.2                   1416.9                   1415.4                   1023.0                   1198.7                   1418.1                   1419.8                   1417.5                   1416.0                   1022.2                   1198.1                   1417.6                   1419.2                   1416.9                   1415.4                   720.27                   862.64                   1197.2                   1205.0                   1205.4                   1204.6                   178.10                   186.34                   205.59                   207.40                   208.50                   208.85                   39.074                   39.881                   41.788                   41.968                   42.079                   42.116                   23.565                   23.746                   24.188                   24.231                   24.257                   24.266                   21.779                   21.880                   22.128                   22.153                   22.168                   22.173                   21.290                   21.362                   21.530                   21.545                   21.555                   21.558
18.000                   1.5000                   1.0000                   1.4000                   10000                    2500.0                   65.000                   1105.7                   1251.9                   1435.0                   1436.0                   1433.5                   1431.9                   1106.4                   1252.3                   1435.9                   1437.0                   1434.4                   1432.9                   1105.4                   1251.7                   1436.5                   1437.7                   1435.1                   1433.6                   1104.3                   1251.0                   1435.8                   1437.0                   1434.4                   1432.9                   755.61                   912.24                   1217.5                   1223.8                   1223.6                   1222.7                   193.56                   201.81                   221.18                   223.00                   224.12                   224.47                   41.608                   42.423                   44.347                   44.529                   44.641                   44.678                   23.932                   24.113                   24.556                   24.600                   24.626                   24.635                   21.979                   22.080                   22.329                   22.353                   22.368                   22.373                   21.446                   21.518                   21.686                   21.701                   21.711                   21.714
18.000                   1.5000                   1.0000                   1.4000                   10000                    2500.0                   70.000                   1175.6                   1295.9                   1455.4                   1456.4                   1453.7                   1452.1                   1176.1                   1296.1                   1456.6                   1457.7                   1455.0                   1453.4                   1175.3                   1295.7                   1457.4                   1458.6                   1455.9                   1454.4                   1173.9                   1294.8                   1456.3                   1457.4                   1454.8                   1453.2                   798.70                   960.41                   1237.1                   1242.1                   1241.4                   1240.4                   208.58                   216.84                   236.32                   238.16                   239.28                   239.64                   44.347                   45.169                   47.109                   47.293                   47.405                   47.443                   24.322                   24.504                   24.948                   24.991                   25.018                   25.027                   22.187                   22.288                   22.537                   22.561                   22.576                   22.581                   21.609                   21.681                   21.848                   21.864                   21.873                   21.876
18.000                   1.5000                   1.0000                   1.4000                   10000                    2500.0                   75.000                   1232.9                   1332.3                   1487.9                   1488.8                   1485.9                   1484.2                   1233.3                   1332.5                   1489.1                   1490.1                   1487.2                   1485.5                   1232.7                   1332.2                   1489.9                   1491.0                   1488.1                   1486.4                   1231.0                   1331.2                   1488.5                   1489.6                   1486.7                   1485.0                   849.43                   1004.6                   1255.3                   1259.3                   1258.2                   1257.2                   223.12                   231.38                   250.93                   252.77                   253.90                   254.26                   47.290                   48.118                   50.073                   50.258                   50.371                   50.409                   24.740                   24.922                   25.367                   25.410                   25.437                   25.446                   22.405                   22.506                   22.755                   22.779                   22.794                   22.799                   21.778                   21.851                   22.018                   22.033                   22.043                   22.046