% Model:              batchmodel_COIL_N_18_COIL_kr_3_COIL_kh_2_COIL_kturn_1.7_FUNZ_freq_10000_FUNZ_I_eff_4000.mph
% Version:            COMSOL 5.6.0.280
% Date:               Feb 2 2022, 07:48
% Table:              Tabella 1 - GRIGLIA_T
% COIL_N                 COIL_kr                  COIL_kh                  COIL_kturn               FUNZ_freq                FUNZ_I_eff               Time (s)                 Temperatura (degC), Punto: (0, 0)Temperatura (degC), Punto: (15, 0)Temperatura (degC), Punto: (28.051, 0)Temperatura (degC), Punto: (29.025, 0)Temperatura (degC), Punto: (29.61, 0)Temperatura (degC), Punto: (29.805, 0)Temperatura (degC), Punto: (0, 62.5)Temperatura (degC), Punto: (15, 62.5)Temperatura (degC), Punto: (28.051, 62.5)Temperatura (degC), Punto: (29.025, 62.5)Temperatura (degC), Punto: (29.61, 62.5)Temperatura (degC), Punto: (29.805, 62.5)Temperatura (degC), Punto: (0, 125)Temperatura (degC), Punto: (15, 125)Temperatura (degC), Punto: (28.051, 125)Temperatura (degC), Punto: (29.025, 125)Temperatura (degC), Punto: (29.61, 125)Temperatura (degC), Punto: (29.805, 125)Temperatura (degC), Punto: (0, 187.5)Temperatura (degC), Punto: (15, 187.5)Temperatura (degC), Punto: (28.051, 187.5)Temperatura (degC), Punto: (29.025, 187.5)Temperatura (degC), Punto: (29.61, 187.5)Temperatura (degC), Punto: (29.805, 187.5)Temperatura (degC), Punto: (0, 250)Temperatura (degC), Punto: (15, 250)Temperatura (degC), Punto: (28.051, 250)Temperatura (degC), Punto: (29.025, 250)Temperatura (degC), Punto: (29.61, 250)Temperatura (degC), Punto: (29.805, 250)Temperatura (degC), Punto: (0, 312.5)Temperatura (degC), Punto: (15, 312.5)Temperatura (degC), Punto: (28.051, 312.5)Temperatura (degC), Punto: (29.025, 312.5)Temperatura (degC), Punto: (29.61, 312.5)Temperatura (degC), Punto: (29.805, 312.5)Temperatura (degC), Punto: (0, 375)Temperatura (degC), Punto: (15, 375)Temperatura (degC), Punto: (28.051, 375)Temperatura (degC), Punto: (29.025, 375)Temperatura (degC), Punto: (29.61, 375)Temperatura (degC), Punto: (29.805, 375)Temperatura (degC), Punto: (0, 437.5)Temperatura (degC), Punto: (15, 437.5)Temperatura (degC), Punto: (28.051, 437.5)Temperatura (degC), Punto: (29.025, 437.5)Temperatura (degC), Punto: (29.61, 437.5)Temperatura (degC), Punto: (29.805, 437.5)Temperatura (degC), Punto: (0, 468.75)Temperatura (degC), Punto: (15, 468.75)Temperatura (degC), Punto: (28.051, 468.75)Temperatura (degC), Punto: (29.025, 468.75)Temperatura (degC), Punto: (29.61, 468.75)Temperatura (degC), Punto: (29.805, 468.75)Temperatura (degC), Punto: (0, 492.19)Temperatura (degC), Punto: (15, 492.19)Temperatura (degC), Punto: (28.051, 492.19)Temperatura (degC), Punto: (29.025, 492.19)Temperatura (degC), Punto: (29.61, 492.19)Temperatura (degC), Punto: (29.805, 492.19)
18.000                   3.0000                   2.0000                   1.7000                   10000                    4000.0                   0.0000                   20.000                   20.000                   20.000                   20.000                   20.197                   20.472                   20.000                   20.000                   20.000                   20.000                   20.197                   20.472                   20.000                   20.000                   20.000                   20.000                   20.197                   20.473                   20.000                   20.000                   20.000                   20.000                   20.198                   20.473                   20.000                   20.000                   20.000                   20.000                   20.198                   20.474                   20.000                   20.000                   20.000                   20.000                   20.199                   20.475                   20.000                   20.000                   20.000                   20.000                   20.199                   20.476                   20.000                   20.000                   20.000                   20.000                   20.201                   20.479                   20.000                   20.000                   20.000                   20.000                   20.208                   20.491                   20.000                   20.000                   20.000                   20.001                   20.248                   20.560
18.000                   3.0000                   2.0000                   1.7000                   10000                    4000.0                   5.0000                   32.340                   86.033                   431.52                   491.55                   525.67                   532.80                   32.247                   86.205                   432.21                   492.20                   526.29                   533.41                   32.322                   86.587                   435.63                   496.09                   530.33                   537.47                   32.393                   86.880                   434.89                   495.03                   529.22                   536.35                   32.482                   87.390                   439.00                   499.68                   534.05                   541.20                   32.573                   87.878                   441.66                   502.62                   537.08                   544.25                   32.643                   88.219                   443.23                   504.17                   538.57                   545.73                   32.631                   88.197                   445.42                   507.17                   542.09                   549.33                   33.501                   91.098                   457.53                   521.29                   557.10                   564.48                   57.291                   128.20                   497.79                   559.41                   593.87                   600.94
18.000                   3.0000                   2.0000                   1.7000                   10000                    4000.0                   10.000                   118.73                   235.75                   754.46                   856.19                   907.72                   917.04                   118.66                   235.90                   755.11                   857.17                   908.82                   918.15                   118.94                   236.43                   756.88                   859.46                   910.96                   920.25                   119.23                   236.95                   757.99                   860.87                   912.82                   922.17                   119.43                   237.37                   759.40                   862.83                   915.12                   924.51                   119.71                   237.98                   762.25                   866.32                   918.61                   928.00                   119.98                   238.45                   763.99                   868.34                   920.80                   930.20                   120.59                   239.82                   770.81                   877.24                   929.80                   939.15                   125.72                   246.27                   783.88                   892.28                   944.30                   953.48                   159.34                   288.39                   789.83                   885.99                   933.07                   941.43
18.000                   3.0000                   2.0000                   1.7000                   10000                    4000.0                   15.000                   240.58                   381.99                   920.33                   987.61                   1017.2                   1022.2                   240.56                   382.21                   906.53                   968.16                   995.86                   1000.6                   240.87                   383.50                   1060.6                   1126.9                   1143.6                   1145.2                   241.20                   383.30                   897.34                   952.54                   977.22                   981.54                   241.37                   384.74                   1087.4                   1146.3                   1160.8                   1162.1                   241.71                   385.46                   1025.8                   1088.9                   1106.2                   1108.1                   242.06                   386.09                   1074.3                   1132.7                   1147.0                   1148.3                   243.47                   386.94                   905.49                   957.91                   980.90                   984.90                   251.00                   395.38                   1065.7                   1123.1                   1137.5                   1138.9                   282.39                   432.80                   1114.0                   1158.8                   1169.5                   1170.3
18.000                   3.0000                   2.0000                   1.7000                   10000                    4000.0                   20.000                   355.21                   494.33                   928.47                   971.80                   992.30                   995.93                   355.44                   495.24                   916.15                   955.45                   974.17                   977.53                   356.13                   501.41                   1121.2                   1152.7                   1159.8                   1160.0                   356.38                   498.22                   930.31                   965.72                   981.73                   984.57                   356.87                   504.41                   1134.9                   1163.2                   1169.2                   1169.3                   357.28                   504.09                   1072.3                   1106.5                   1115.1                   1115.8                   357.58                   504.90                   1116.0                   1146.1                   1152.8                   1153.0                   359.04                   502.49                   952.58                   987.01                   1001.4                   1003.8                   367.12                   513.44                   1115.6                   1144.9                   1151.4                   1151.6                   395.58                   556.16                   1199.4                   1218.3                   1221.6                   1221.2
18.000                   3.0000                   2.0000                   1.7000                   10000                    4000.0                   25.000                   449.56                   578.67                   957.03                   987.38                   1001.2                   1003.7                   450.11                   580.40                   957.99                   986.63                   999.52                   1001.7                   451.33                   589.12                   1114.1                   1135.9                   1140.3                   1140.3                   451.49                   584.83                   988.84                   1016.5                   1027.1                   1028.7                   452.34                   592.92                   1126.6                   1146.1                   1149.8                   1149.6                   452.64                   591.59                   1088.7                   1111.9                   1117.2                   1117.3                   452.81                   592.37                   1116.3                   1137.2                   1141.4                   1141.3                   454.18                   589.07                   1013.6                   1040.6                   1049.6                   1050.6                   462.20                   600.05                   1108.1                   1128.8                   1133.1                   1133.0                   491.98                   654.19                   1222.4                   1233.8                   1234.8                   1234.1
18.000                   3.0000                   2.0000                   1.7000                   10000                    4000.0                   30.000                   526.12                   644.94                   1011.9                   1035.1                   1043.4                   1044.5                   526.83                   646.99                   1018.3                   1040.8                   1048.4                   1049.3                   528.32                   655.28                   1099.5                   1116.4                   1119.7                   1119.5                   528.46                   651.79                   1049.4                   1070.8                   1076.7                   1077.0                   529.44                   659.15                   1112.4                   1127.4                   1130.1                   1129.8                   529.59                   657.67                   1095.0                   1111.6                   1115.0                   1114.8                   529.66                   658.15                   1105.7                   1121.7                   1124.7                   1124.4                   531.05                   655.64                   1066.8                   1086.5                   1091.2                   1091.3                   539.20                   665.47                   1099.5                   1115.3                   1118.3                   1118.1                   572.65                   734.11                   1234.6                   1242.2                   1242.2                   1241.3
18.000                   3.0000                   2.0000                   1.7000                   10000                    4000.0                   35.000                   590.33                   699.63                   1067.8                   1085.0                   1089.0                   1089.0                   591.03                   701.62                   1072.5                   1088.9                   1092.6                   1092.5                   592.54                   708.45                   1100.4                   1113.3                   1115.5                   1115.2                   592.69                   706.26                   1086.4                   1100.9                   1103.7                   1103.5                   593.64                   711.95                   1108.3                   1120.2                   1122.0                   1121.6                   593.67                   710.83                   1102.4                   1114.9                   1117.0                   1116.6                   593.66                   710.88                   1105.0                   1117.3                   1119.3                   1118.9                   595.10                   709.67                   1093.9                   1107.4                   1109.9                   1109.6                   603.36                   718.56                   1104.3                   1116.1                   1118.0                   1117.6                   639.98                   811.17                   1252.7                   1258.2                   1257.5                   1256.5
18.000                   3.0000                   2.0000                   1.7000                   10000                    4000.0                   40.000                   643.83                   746.30                   1099.7                   1110.9                   1112.5                   1112.1                   644.44                   748.24                   1102.0                   1112.8                   1114.3                   1113.8                   645.81                   753.71                   1108.9                   1118.6                   1119.8                   1119.3                   645.98                   752.64                   1107.0                   1116.8                   1118.1                   1117.6                   646.78                   756.80                   1112.8                   1122.1                   1123.1                   1122.6                   646.75                   756.06                   1111.7                   1121.0                   1122.1                   1121.6                   646.69                   755.83                   1111.7                   1121.1                   1122.2                   1121.7                   648.13                   755.84                   1110.1                   1119.5                   1120.7                   1120.2                   656.46                   765.76                   1115.4                   1124.0                   1124.8                   1124.3                   694.83                   890.16                   1275.9                   1280.0                   1278.8                   1277.7
18.000                   3.0000                   2.0000                   1.7000                   10000                    4000.0                   45.000                   681.16                   791.42                   1114.6                   1122.7                   1123.4                   1122.8                   681.58                   793.11                   1116.0                   1124.0                   1124.6                   1124.0                   682.75                   797.59                   1119.1                   1126.6                   1127.1                   1126.5                   682.92                   797.14                   1119.0                   1126.4                   1127.0                   1126.3                   683.54                   800.26                   1121.6                   1128.8                   1129.3                   1128.6                   683.50                   799.77                   1121.3                   1128.6                   1129.1                   1128.4                   683.44                   799.51                   1121.2                   1128.5                   1128.9                   1128.3                   684.76                   800.58                   1121.4                   1128.6                   1129.1                   1128.4                   692.71                   815.86                   1128.8                   1135.2                   1135.3                   1134.6                   741.77                   962.39                   1301.9                   1305.1                   1303.5                   1302.3
18.000                   3.0000                   2.0000                   1.7000                   10000                    4000.0                   50.000                   714.85                   836.39                   1127.2                   1132.9                   1132.9                   1132.2                   715.08                   837.79                   1128.0                   1133.7                   1133.6                   1132.9                   716.09                   841.32                   1129.5                   1135.0                   1134.9                   1134.1                   716.25                   841.38                   1129.9                   1135.4                   1135.3                   1134.5                   716.72                   843.57                   1131.0                   1136.4                   1136.2                   1135.5                   716.68                   843.31                   1131.1                   1136.5                   1136.4                   1135.6                   716.62                   843.04                   1131.0                   1136.4                   1136.3                   1135.5                   717.89                   845.12                   1132.1                   1137.5                   1137.3                   1136.5                   727.07                   866.69                   1142.8                   1147.2                   1146.7                   1145.8                   793.21                   1031.6                   1327.9                   1330.2                   1328.3                   1327.0
18.000                   3.0000                   2.0000                   1.7000                   10000                    4000.0                   55.000                   741.07                   880.61                   1138.1                   1142.4                   1141.8                   1141.0                   741.17                   881.64                   1138.7                   1142.9                   1142.3                   1141.5                   742.21                   884.29                   1139.8                   1143.9                   1143.3                   1142.5                   742.35                   884.52                   1140.2                   1144.3                   1143.8                   1142.9                   742.84                   886.04                   1140.9                   1145.0                   1144.4                   1143.6                   742.82                   885.95                   1141.1                   1145.2                   1144.6                   1143.8                   742.76                   885.74                   1141.1                   1145.2                   1144.6                   1143.8                   744.40                   888.56                   1142.6                   1146.6                   1146.0                   1145.2                   763.71                   918.28                   1158.5                   1161.6                   1160.6                   1159.7                   872.63                   1090.5                   1352.1                   1353.5                   1351.3                   1349.9
18.000                   3.0000                   2.0000                   1.7000                   10000                    4000.0                   60.000                   774.10                   923.16                   1149.3                   1152.3                   1151.3                   1150.5                   774.28                   923.89                   1149.6                   1152.7                   1151.7                   1150.8                   775.43                   925.81                   1150.5                   1153.5                   1152.5                   1151.6                   775.58                   926.12                   1150.9                   1153.9                   1152.9                   1152.0                   776.10                   927.13                   1151.4                   1154.4                   1153.4                   1152.5                   776.12                   927.18                   1151.7                   1154.6                   1153.6                   1152.8                   776.04                   927.03                   1151.7                   1154.7                   1153.7                   1152.8                   778.66                   930.55                   1153.7                   1156.6                   1155.5                   1154.6                   811.15                   968.31                   1175.7                   1177.6                   1176.3                   1175.3                   949.97                   1144.7                   1374.4                   1375.0                   1372.4                   1371.0
18.000                   3.0000                   2.0000                   1.7000                   10000                    4000.0                   65.000                   815.22                   963.71                   1160.7                   1162.8                   1161.5                   1160.6                   815.71                   964.22                   1161.0                   1163.1                   1161.8                   1160.8                   817.06                   965.62                   1161.7                   1163.8                   1162.5                   1161.5                   817.23                   965.91                   1162.1                   1164.1                   1162.8                   1161.9                   817.82                   966.59                   1162.6                   1164.6                   1163.3                   1162.3                   817.90                   966.74                   1162.8                   1164.9                   1163.6                   1162.6                   817.79                   966.64                   1162.9                   1165.0                   1163.6                   1162.7                   822.09                   970.84                   1165.4                   1167.3                   1166.0                   1165.0                   871.38                   1016.5                   1194.6                   1195.8                   1194.0                   1193.0                   1024.9                   1193.3                   1394.5                   1394.4                   1391.5                   1389.9
18.000                   3.0000                   2.0000                   1.7000                   10000                    4000.0                   70.000                   863.66                   1001.2                   1173.3                   1174.6                   1173.0                   1172.0                   864.27                   1001.5                   1173.5                   1174.8                   1173.2                   1172.2                   865.59                   1002.6                   1174.2                   1175.5                   1173.9                   1172.9                   865.72                   1002.8                   1174.5                   1175.8                   1174.2                   1173.2                   866.32                   1003.3                   1175.0                   1176.3                   1174.7                   1173.7                   866.46                   1003.5                   1175.3                   1176.6                   1175.0                   1174.0                   866.34                   1003.5                   1175.4                   1176.7                   1175.1                   1174.1                   872.05                   1008.4                   1178.6                   1179.8                   1178.2                   1177.1                   933.23                   1061.2                   1215.6                   1216.0                   1214.0                   1212.9                   1090.7                   1236.1                   1413.1                   1412.5                   1409.4                   1407.7
18.000                   3.0000                   2.0000                   1.7000                   10000                    4000.0                   75.000                   913.98                   1037.2                   1186.4                   1187.0                   1185.2                   1184.1                   914.66                   1037.4                   1186.6                   1187.2                   1185.4                   1184.3                   915.86                   1038.2                   1187.2                   1187.8                   1186.0                   1184.9                   915.95                   1038.4                   1187.5                   1188.1                   1186.3                   1185.2                   916.54                   1038.8                   1188.0                   1188.6                   1186.8                   1185.7                   916.73                   1039.0                   1188.3                   1188.9                   1187.1                   1186.0                   916.61                   1039.0                   1188.4                   1189.1                   1187.2                   1186.2                   923.62                   1044.7                   1192.4                   1193.0                   1191.1                   1190.0                   994.71                   1104.2                   1237.2                   1237.0                   1234.7                   1233.5                   1152.5                   1276.4                   1431.4                   1430.3                   1427.0                   1425.3