% Model:              batchmodel_COIL_N_18_COIL_kr_3_COIL_kh_3_COIL_kturn_1.7_FUNZ_freq_2000_FUNZ_I_eff_1000.mph
% Version:            COMSOL 5.6.0.280
% Date:               Feb 2 2022, 08:29
% Table:              Tabella 1 - GRIGLIA_T
% COIL_N                 COIL_kr                  COIL_kh                  COIL_kturn               FUNZ_freq                FUNZ_I_eff               Time (s)                 Temperatura (degC), Punto: (0, 0)Temperatura (degC), Punto: (15, 0)Temperatura (degC), Punto: (25.641, 0)Temperatura (degC), Punto: (27.821, 0)Temperatura (degC), Punto: (29.128, 0)Temperatura (degC), Punto: (29.564, 0)Temperatura (degC), Punto: (0, 62.5)Temperatura (degC), Punto: (15, 62.5)Temperatura (degC), Punto: (25.641, 62.5)Temperatura (degC), Punto: (27.821, 62.5)Temperatura (degC), Punto: (29.128, 62.5)Temperatura (degC), Punto: (29.564, 62.5)Temperatura (degC), Punto: (0, 125)Temperatura (degC), Punto: (15, 125)Temperatura (degC), Punto: (25.641, 125)Temperatura (degC), Punto: (27.821, 125)Temperatura (degC), Punto: (29.128, 125)Temperatura (degC), Punto: (29.564, 125)Temperatura (degC), Punto: (0, 187.5)Temperatura (degC), Punto: (15, 187.5)Temperatura (degC), Punto: (25.641, 187.5)Temperatura (degC), Punto: (27.821, 187.5)Temperatura (degC), Punto: (29.128, 187.5)Temperatura (degC), Punto: (29.564, 187.5)Temperatura (degC), Punto: (0, 250)Temperatura (degC), Punto: (15, 250)Temperatura (degC), Punto: (25.641, 250)Temperatura (degC), Punto: (27.821, 250)Temperatura (degC), Punto: (29.128, 250)Temperatura (degC), Punto: (29.564, 250)Temperatura (degC), Punto: (0, 312.5)Temperatura (degC), Punto: (15, 312.5)Temperatura (degC), Punto: (25.641, 312.5)Temperatura (degC), Punto: (27.821, 312.5)Temperatura (degC), Punto: (29.128, 312.5)Temperatura (degC), Punto: (29.564, 312.5)Temperatura (degC), Punto: (0, 375)Temperatura (degC), Punto: (15, 375)Temperatura (degC), Punto: (25.641, 375)Temperatura (degC), Punto: (27.821, 375)Temperatura (degC), Punto: (29.128, 375)Temperatura (degC), Punto: (29.564, 375)Temperatura (degC), Punto: (0, 437.5)Temperatura (degC), Punto: (15, 437.5)Temperatura (degC), Punto: (25.641, 437.5)Temperatura (degC), Punto: (27.821, 437.5)Temperatura (degC), Punto: (29.128, 437.5)Temperatura (degC), Punto: (29.564, 437.5)Temperatura (degC), Punto: (0, 468.75)Temperatura (degC), Punto: (15, 468.75)Temperatura (degC), Punto: (25.641, 468.75)Temperatura (degC), Punto: (27.821, 468.75)Temperatura (degC), Punto: (29.128, 468.75)Temperatura (degC), Punto: (29.564, 468.75)Temperatura (degC), Punto: (0, 492.19)Temperatura (degC), Punto: (15, 492.19)Temperatura (degC), Punto: (25.641, 492.19)Temperatura (degC), Punto: (27.821, 492.19)Temperatura (degC), Punto: (29.128, 492.19)Temperatura (degC), Punto: (29.564, 492.19)
18.000                   3.0000                   3.0000                   1.7000                   2000.0                   1000.0                   0.0000                   20.000                   20.000                   20.000                   20.000                   20.000                   20.004                   20.000                   20.000                   20.000                   20.000                   20.000                   20.004                   20.000                   20.000                   20.000                   20.000                   20.000                   20.004                   20.000                   20.000                   20.000                   20.000                   20.000                   20.004                   20.000                   20.000                   20.000                   20.000                   20.000                   20.004                   20.000                   20.000                   20.000                   20.000                   20.000                   20.004                   20.000                   20.000                   20.000                   20.000                   20.000                   20.004                   20.000                   20.000                   20.000                   20.000                   20.000                   20.004                   20.000                   20.000                   20.000                   20.000                   20.000                   20.003                   20.000                   20.000                   20.000                   20.000                   20.000                   20.001
18.000                   3.0000                   3.0000                   1.7000                   2000.0                   1000.0                   5.0000                   20.694                   22.009                   27.452                   29.549                   30.727                   31.110                   20.647                   21.837                   26.645                   28.496                   29.572                   29.949                   20.676                   21.931                   26.956                   28.915                   30.240                   30.666                   20.676                   21.923                   26.893                   28.786                   29.936                   30.317                   20.643                   21.804                   26.319                   28.033                   29.173                   29.573                   20.681                   21.957                   27.102                   29.004                   30.083                   30.462                   20.638                   21.818                   26.591                   28.453                   29.530                   29.871                   20.654                   21.870                   26.870                   28.948                   30.331                   30.753                   20.574                   21.654                   26.055                   27.747                   28.759                   29.079                   20.519                   21.408                   24.494                   25.550                   26.171                   26.374
18.000                   3.0000                   3.0000                   1.7000                   2000.0                   1000.0                   10.000                   23.020                   25.609                   31.786                   33.526                   34.604                   34.973                   22.879                   25.335                   31.307                   33.080                   34.197                   34.581                   22.970                   25.504                   31.507                   33.202                   34.244                   34.601                   22.968                   25.500                   31.555                   33.313                   34.427                   34.803                   22.875                   25.317                   31.207                   32.941                   34.078                   34.462                   22.960                   25.480                   31.472                   33.182                   34.274                   34.645                   22.836                   25.272                   31.232                   33.026                   34.148                   34.544                   22.886                   25.362                   31.320                   33.072                   34.148                   34.510                   22.517                   24.708                   30.105                   31.715                   32.724                   33.075                   22.115                   23.711                   27.095                   28.008                   28.579                   28.776
18.000                   3.0000                   3.0000                   1.7000                   2000.0                   1000.0                   15.000                   26.701                   30.123                   37.542                   39.523                   40.576                   40.938                   26.367                   29.539                   36.398                   38.306                   39.400                   39.773                   26.596                   29.925                   36.933                   38.782                   39.849                   40.182                   26.549                   29.863                   36.958                   38.924                   40.018                   40.374                   26.342                   29.489                   36.114                   37.905                   39.049                   39.430                   26.496                   29.772                   36.774                   38.628                   39.698                   40.052                   26.281                   29.470                   36.551                   38.648                   39.763                   40.166                   26.440                   29.702                   36.735                   38.760                   39.919                   40.247                   25.658                   28.613                   35.221                   37.082                   38.106                   38.445                   24.770                   26.934                   31.164                   32.206                   32.789                   32.984
18.000                   3.0000                   3.0000                   1.7000                   2000.0                   1000.0                   20.000                   31.004                   35.121                   43.968                   46.370                   47.480                   47.849                   30.409                   34.088                   41.700                   43.767                   44.854                   45.220                   30.830                   34.796                   42.881                   45.037                   46.248                   46.580                   30.709                   34.630                   42.751                   45.012                   46.106                   46.447                   30.342                   33.961                   41.083                   42.949                   44.107                   44.490                   30.605                   34.493                   42.639                   44.751                   45.827                   46.169                   30.279                   34.038                   42.239                   44.746                   45.874                   46.275                   30.593                   34.474                   42.624                   45.057                   46.401                   46.697                   29.357                   32.969                   40.867                   43.053                   44.109                   44.422                   27.957                   30.694                   36.074                   37.343                   37.970                   38.171
18.000                   3.0000                   3.0000                   1.7000                   2000.0                   1000.0                   25.000                   35.328                   39.309                   47.162                   49.219                   50.366                   50.747                   34.683                   38.375                   45.637                   47.577                   48.726                   49.112                   35.152                   39.048                   46.586                   48.559                   49.749                   50.120                   34.957                   38.808                   46.318                   48.321                   49.462                   49.833                   34.568                   38.224                   45.272                   47.135                   48.311                   48.703                   34.805                   38.624                   46.110                   48.051                   49.182                   49.553                   34.483                   38.221                   45.738                   47.844                   49.013                   49.412                   34.807                   38.626                   46.116                   48.178                   49.408                   49.763                   33.058                   36.528                   43.470                   45.314                   46.357                   46.691                   31.233                   33.844                   38.565                   39.676                   40.300                   40.505
18.000                   3.0000                   3.0000                   1.7000                   2000.0                   1000.0                   30.000                   39.740                   43.686                   51.073                   52.966                   54.137                   54.528                   39.036                   42.782                   49.936                   51.834                   53.025                   53.424                   39.532                   43.417                   50.695                   52.587                   53.795                   54.201                   39.271                   43.116                   50.345                   52.221                   53.399                   53.793                   38.863                   42.585                   49.668                   51.546                   52.742                   53.143                   39.069                   42.886                   50.089                   51.963                   53.138                   53.532                   38.743                   42.497                   49.661                   51.557                   52.745                   53.140                   39.081                   42.912                   50.186                   52.134                   53.374                   53.793                   36.809                   40.220                   46.674                   48.354                   49.412                   49.764                   34.569                   37.111                   41.443                   42.461                   43.084                   43.293
18.000                   3.0000                   3.0000                   1.7000                   2000.0                   1000.0                   35.000                   44.282                   48.344                   56.060                   58.061                   59.237                   59.632                   43.505                   47.366                   54.780                   56.759                   57.961                   58.366                   43.998                   47.960                   55.412                   57.376                   58.660                   59.094                   43.684                   47.620                   55.062                   57.009                   58.208                   58.610                   43.261                   47.092                   54.376                   56.296                   57.514                   57.922                   43.429                   47.345                   54.827                   56.794                   57.996                   58.404                   43.088                   46.911                   54.219                   56.193                   57.366                   57.753                   43.445                   47.400                   55.121                   57.342                   58.779                   59.266                   40.637                   44.110                   50.779                   52.564                   53.676                   54.044                   37.995                   40.553                   44.899                   45.925                   46.548                   46.762
18.000                   3.0000                   3.0000                   1.7000                   2000.0                   1000.0                   40.000                   49.422                   53.714                   62.020                   64.168                   65.350                   65.747                   48.450                   52.438                   60.151                   62.216                   63.421                   63.824                   49.031                   53.180                   61.071                   63.172                   64.502                   64.944                   48.617                   52.747                   60.644                   62.720                   63.922                   64.320                   48.047                   51.992                   59.476                   61.437                   62.665                   63.076                   48.283                   52.388                   60.305                   62.367                   63.581                   63.989                   47.797                   51.749                   59.466                   61.592                   62.746                   63.112                   48.272                   52.427                   60.684                   63.116                   64.655                   65.142                   44.935                   48.574                   55.689                   57.596                   58.711                   59.075                   41.923                   44.599                   49.215                   50.306                   50.935                   51.150
18.000                   3.0000                   3.0000                   1.7000                   2000.0                   1000.0                   45.000                   54.712                   59.262                   68.225                   70.529                   71.718                   72.114                   53.515                   57.633                   65.653                   67.805                   69.011                   69.412                   54.205                   58.570                   66.966                   69.220                   70.589                   71.034                   53.681                   58.031                   66.442                   68.663                   69.863                   70.254                   52.930                   56.990                   64.676                   66.676                   67.911                   68.322                   53.262                   57.577                   65.968                   68.125                   69.348                   69.753                   52.597                   56.693                   64.886                   67.182                   68.316                   68.658                   53.216                   57.589                   66.403                   69.032                   70.649                   71.118                   49.349                   53.182                   60.801                   62.833                   63.940                   64.295                   45.976                   48.796                   53.745                   54.916                   55.553                   55.769
18.000                   3.0000                   3.0000                   1.7000                   2000.0                   1000.0                   50.000                   60.002                   64.810                   74.429                   76.890                   78.085                   78.481                   58.579                   62.828                   71.156                   73.395                   74.602                   75.000                   59.379                   63.959                   72.861                   75.268                   76.676                   77.124                   58.745                   63.315                   72.240                   74.605                   75.804                   76.187                   57.812                   61.988                   69.875                   71.915                   73.156                   73.569                   58.240                   62.767                   71.631                   73.883                   75.116                   75.517                   57.397                   61.637                   70.305                   72.772                   73.886                   74.203                   58.160                   62.750                   72.122                   74.948                   76.643                   77.094                   53.764                   57.789                   65.913                   68.070                   69.168                   69.514                   50.029                   52.993                   58.276                   59.526                   60.171                   60.388
18.000                   3.0000                   3.0000                   1.7000                   2000.0                   1000.0                   55.000                   64.774                   69.517                   78.919                   81.323                   82.520                   82.916                   63.343                   67.566                   75.794                   78.001                   79.211                   79.609                   64.118                   68.654                   77.425                   79.786                   81.170                   81.610                   63.394                   67.920                   76.703                   79.025                   80.223                   80.607                   62.428                   66.583                   74.416                   76.446                   77.685                   78.097                   62.822                   67.304                   76.018                   78.231                   79.458                   79.857                   61.942                   66.154                   74.704                   77.117                   78.243                   78.568                   62.598                   67.130                   76.274                   78.981                   80.605                   81.039                   57.773                   61.737                   69.675                   71.775                   72.861                   73.205                   53.781                   56.691                   61.858                   63.084                   63.725                   63.939
18.000                   3.0000                   3.0000                   1.7000                   2000.0                   1000.0                   60.000                   69.199                   73.663                   82.267                   84.470                   85.666                   86.062                   67.906                   71.999                   79.857                   81.951                   83.165                   83.567                   68.566                   72.885                   81.102                   83.285                   84.601                   85.027                   67.769                   72.072                   80.275                   82.429                   83.628                   84.017                   66.866                   70.908                   78.518                   80.505                   81.736                   82.146                   67.139                   71.405                   79.554                   81.638                   82.850                   83.248                   66.318                   70.388                   78.422                   80.634                   81.792                   82.147                   66.699                   70.987                   79.382                   81.760                   83.212                   83.630                   61.513                   65.243                   72.537                   74.458                   75.529                   75.875                   57.332                   60.056                   64.808                   65.941                   66.569                   66.779
18.000                   3.0000                   3.0000                   1.7000                   2000.0                   1000.0                   65.000                   73.625                   77.809                   85.615                   87.618                   88.812                   89.209                   72.469                   76.431                   83.920                   85.901                   87.120                   87.525                   73.014                   77.116                   84.779                   86.784                   88.033                   88.444                   72.143                   76.224                   83.847                   85.833                   87.033                   87.428                   71.303                   75.233                   82.620                   84.563                   85.787                   86.195                   71.456                   75.507                   83.090                   85.045                   86.243                   86.639                   70.693                   74.621                   82.141                   84.150                   85.341                   85.727                   70.801                   74.845                   82.489                   84.540                   85.819                   86.221                   65.252                   68.750                   75.398                   77.142                   78.197                   78.546                   60.883                   63.421                   67.759                   68.798                   69.413                   69.618
18.000                   3.0000                   3.0000                   1.7000                   2000.0                   1000.0                   70.000                   78.121                   82.138                   89.502                   91.396                   92.584                   92.979                   77.057                   80.938                   88.212                   90.128                   91.343                   91.747                   77.523                   81.498                   88.844                   90.744                   91.949                   92.348                   76.579                   80.528                   87.829                   89.726                   90.924                   91.321                   75.779                   79.640                   86.893                   88.809                   90.026                   90.431                   75.827                   79.750                   87.017                   88.903                   90.087                   90.479                   75.108                   78.955                   86.199                   88.103                   89.314                   89.722                   74.958                   78.855                   86.071                   87.939                   89.108                   89.494                   69.061                   72.422                   78.713                   80.358                   81.400                   81.749                   64.524                   66.960                   71.081                   72.065                   72.666                   72.866
18.000                   3.0000                   3.0000                   1.7000                   2000.0                   1000.0                   75.000                   82.720                   86.742                   94.196                   96.118                   97.295                   97.683                   81.680                   85.557                   92.850                   94.769                   95.969                   96.368                   82.126                   86.106                   93.489                   95.397                   96.591                   96.983                   81.109                   85.061                   92.426                   94.352                   95.544                   95.936                   80.311                   84.172                   91.424                   93.335                   94.548                   94.950                   80.281                   84.203                   91.533                   93.436                   94.608                   94.993                   79.583                   83.440                   90.765                   92.712                   93.923                   94.340                   79.199                   83.095                   90.363                   92.270                   93.422                   93.790                   72.975                   76.341                   82.707                   84.374                   85.406                   85.750                   68.299                   70.759                   74.961                   75.949                   76.534                   76.727