% Model:              batchmodel_COIL_N_18_COIL_kr_3_COIL_kh_1_COIL_kturn_1.7_FUNZ_freq_2000_FUNZ_I_eff_2500.mph
% Version:            COMSOL 5.6.0.280
% Date:               Feb 2 2022, 03:40
% Table:              Tabella 1 - GRIGLIA_T
% COIL_N                 COIL_kr                  COIL_kh                  COIL_kturn               FUNZ_freq                FUNZ_I_eff               Time (s)                 Temperatura (degC), Punto: (0, 0)Temperatura (degC), Punto: (15, 0)Temperatura (degC), Punto: (25.641, 0)Temperatura (degC), Punto: (27.821, 0)Temperatura (degC), Punto: (29.128, 0)Temperatura (degC), Punto: (29.564, 0)Temperatura (degC), Punto: (0, 62.5)Temperatura (degC), Punto: (15, 62.5)Temperatura (degC), Punto: (25.641, 62.5)Temperatura (degC), Punto: (27.821, 62.5)Temperatura (degC), Punto: (29.128, 62.5)Temperatura (degC), Punto: (29.564, 62.5)Temperatura (degC), Punto: (0, 125)Temperatura (degC), Punto: (15, 125)Temperatura (degC), Punto: (25.641, 125)Temperatura (degC), Punto: (27.821, 125)Temperatura (degC), Punto: (29.128, 125)Temperatura (degC), Punto: (29.564, 125)Temperatura (degC), Punto: (0, 187.5)Temperatura (degC), Punto: (15, 187.5)Temperatura (degC), Punto: (25.641, 187.5)Temperatura (degC), Punto: (27.821, 187.5)Temperatura (degC), Punto: (29.128, 187.5)Temperatura (degC), Punto: (29.564, 187.5)Temperatura (degC), Punto: (0, 250)Temperatura (degC), Punto: (15, 250)Temperatura (degC), Punto: (25.641, 250)Temperatura (degC), Punto: (27.821, 250)Temperatura (degC), Punto: (29.128, 250)Temperatura (degC), Punto: (29.564, 250)Temperatura (degC), Punto: (0, 312.5)Temperatura (degC), Punto: (15, 312.5)Temperatura (degC), Punto: (25.641, 312.5)Temperatura (degC), Punto: (27.821, 312.5)Temperatura (degC), Punto: (29.128, 312.5)Temperatura (degC), Punto: (29.564, 312.5)Temperatura (degC), Punto: (0, 375)Temperatura (degC), Punto: (15, 375)Temperatura (degC), Punto: (25.641, 375)Temperatura (degC), Punto: (27.821, 375)Temperatura (degC), Punto: (29.128, 375)Temperatura (degC), Punto: (29.564, 375)Temperatura (degC), Punto: (0, 437.5)Temperatura (degC), Punto: (15, 437.5)Temperatura (degC), Punto: (25.641, 437.5)Temperatura (degC), Punto: (27.821, 437.5)Temperatura (degC), Punto: (29.128, 437.5)Temperatura (degC), Punto: (29.564, 437.5)Temperatura (degC), Punto: (0, 468.75)Temperatura (degC), Punto: (15, 468.75)Temperatura (degC), Punto: (25.641, 468.75)Temperatura (degC), Punto: (27.821, 468.75)Temperatura (degC), Punto: (29.128, 468.75)Temperatura (degC), Punto: (29.564, 468.75)Temperatura (degC), Punto: (0, 492.19)Temperatura (degC), Punto: (15, 492.19)Temperatura (degC), Punto: (25.641, 492.19)Temperatura (degC), Punto: (27.821, 492.19)Temperatura (degC), Punto: (29.128, 492.19)Temperatura (degC), Punto: (29.564, 492.19)
18.000                   3.0000                   1.0000                   1.7000                   2000.0                   2500.0                   0.0000                   20.000                   20.000                   20.000                   20.000                   20.048                   20.112                   20.000                   20.000                   20.000                   20.000                   20.048                   20.112                   20.000                   20.000                   20.000                   20.000                   20.048                   20.112                   20.000                   20.000                   20.000                   20.000                   20.048                   20.112                   20.000                   20.000                   20.000                   20.000                   20.045                   20.107                   20.000                   20.000                   20.000                   20.000                   20.021                   20.061                   20.000                   20.000                   20.000                   20.000                   20.001                   20.015                   20.000                   20.000                   20.000                   20.000                   20.000                   20.002                   20.000                   20.000                   20.000                   20.000                   20.000                   20.000                   20.000                   20.000                   20.000                   20.000                   20.000                   20.000
18.000                   3.0000                   1.0000                   1.7000                   2000.0                   2500.0                   5.0000                   28.206                   53.783                   156.73                   195.81                   220.12                   225.99                   28.198                   53.760                   157.11                   196.61                   220.84                   226.69                   28.259                   54.242                   161.09                   202.66                   228.69                   234.74                   28.086                   53.323                   156.60                   197.51                   224.69                   231.29                   27.488                   50.862                   145.73                   182.23                   206.11                   212.28                   24.469                   38.548                   96.355                   117.77                   131.45                   135.20                   21.317                   25.483                   42.821                   49.111                   52.424                   53.369                   20.433                   21.780                   27.277                   29.324                   30.268                   30.460                   20.403                   21.761                   27.878                   30.094                   30.769                   30.835                   20.502                   22.153                   28.490                   30.981                   31.658                   31.742
18.000                   3.0000                   1.0000                   1.7000                   2000.0                   2500.0                   10.000                   69.469                   129.17                   283.47                   333.43                   363.33                   370.29                   69.392                   128.94                   283.28                   333.43                   363.57                   370.67                   70.021                   130.81                   286.73                   337.37                   367.75                   374.73                   69.231                   129.30                   287.07                   339.92                   371.69                   378.60                   65.629                   121.64                   268.96                   318.51                   348.52                   354.95                   47.607                   81.213                   163.28                   187.23                   201.88                   205.58                   28.663                   39.422                   65.843                   73.382                   77.234                   78.347                   23.236                   27.422                   37.526                   40.222                   41.442                   41.734                   23.120                   27.512                   39.498                   42.733                   43.654                   43.790                   23.794                   29.135                   41.199                   44.191                   45.132                   45.233
18.000                   3.0000                   1.0000                   1.7000                   2000.0                   2500.0                   15.000                   138.51                   217.40                   406.81                   470.59                   506.93                   514.38                   138.30                   217.09                   406.72                   470.74                   507.22                   514.70                   139.60                   218.96                   407.43                   470.95                   507.24                   514.68                   138.53                   217.95                   407.71                   471.41                   507.74                   515.17                   130.51                   205.10                   380.80                   438.57                   471.89                   478.85                   87.369                   130.15                   219.62                   246.19                   263.19                   267.37                   42.051                   55.862                   81.556                   87.943                   91.908                   93.132                   28.847                   34.577                   44.209                   46.148                   47.231                   47.569                   28.600                   34.481                   44.133                   45.742                   46.466                   46.656                   29.915                   36.344                   45.192                   46.270                   46.689                   46.781
18.000                   3.0000                   1.0000                   1.7000                   2000.0                   2500.0                   20.000                   217.89                   307.44                   526.04                   600.61                   640.66                   648.51                   217.55                   307.03                   525.61                   600.13                   640.11                   647.94                   218.97                   308.47                   526.59                   601.08                   641.10                   648.95                   218.05                   307.70                   525.55                   599.69                   639.47                   647.23                   205.69                   289.79                   490.18                   557.16                   594.26                   601.64                   134.74                   182.06                   283.78                   314.91                   334.30                   338.83                   58.160                   71.993                   96.888                   103.40                   107.59                   108.88                   35.191                   40.267                   47.769                   49.359                   50.359                   50.692                   34.154                   38.634                   43.949                   44.760                   45.239                   45.401                   35.247                   39.506                   43.711                   44.103                   44.300                   44.357
18.000                   3.0000                   1.0000                   1.7000                   2000.0                   2500.0                   25.000                   297.42                   394.92                   633.33                   714.52                   755.82                   763.79                   297.01                   394.47                   632.85                   713.91                   755.05                   762.94                   298.34                   395.58                   634.10                   715.48                   756.91                   764.90                   297.51                   394.85                   632.58                   713.88                   755.02                   762.80                   281.39                   373.19                   595.18                   670.77                   711.37                   719.14                   184.11                   235.64                   348.98                   384.12                   405.58                   410.39                   74.764                   88.520                   113.61                   120.43                   124.88                   126.23                   41.007                   45.284                   51.536                   53.022                   54.014                   54.355                   38.607                   41.636                   44.442                   44.922                   45.306                   45.459                   39.080                   41.387                   42.772                   42.853                   42.950                   42.992
18.000                   3.0000                   1.0000                   1.7000                   2000.0                   2500.0                   30.000                   373.51                   475.75                   729.58                   827.89                   876.55                   885.27                   373.03                   475.15                   728.27                   826.02                   874.37                   883.02                   374.16                   476.07                   728.95                   826.24                   874.74                   883.48                   373.36                   475.31                   728.02                   825.82                   873.98                   882.54                   353.83                   449.69                   680.29                   760.12                   804.34                   812.63                   234.36                   289.72                   412.87                   450.89                   473.57                   478.51                   92.000                   105.88                   132.19                   139.45                   144.15                   145.56                   46.165                   49.821                   55.802                   57.372                   58.400                   58.753                   41.793                   43.807                   46.064                   46.609                   47.015                   47.169                   41.364                   42.511                   43.208                   43.337                   43.432                   43.473
18.000                   3.0000                   1.0000                   1.7000                   2000.0                   2500.0                   35.000                   443.26                   548.47                   833.51                   942.31                   989.30                   996.80                   442.72                   547.72                   831.27                   939.75                   986.53                   994.00                   443.62                   548.36                   829.26                   936.05                   983.08                   990.68                   442.87                   547.81                   831.02                   939.25                   985.82                   993.23                   420.39                   518.37                   761.79                   855.11                   901.07                   909.05                   283.87                   342.34                   472.40                   512.29                   535.49                   540.44                   109.83                   124.11                   151.77                   159.37                   164.25                   165.70                   50.921                   54.295                   60.377                   62.015                   63.062                   63.417                   44.192                   45.766                   48.222                   48.880                   49.317                   49.472                   42.802                   43.544                   44.443                   44.673                   44.795                   44.840
18.000                   3.0000                   1.0000                   1.7000                   2000.0                   2500.0                   40.000                   506.67                   610.76                   895.51                   989.40                   1027.0                   1032.5                   506.61                   613.04                   929.68                   1027.9                   1062.0                   1066.4                   507.57                   615.07                   947.59                   1041.1                   1073.3                   1077.4                   506.28                   610.87                   900.24                   994.85                   1031.9                   1037.3                   481.01                   578.57                   830.48                   925.62                   968.23                   975.09                   331.48                   391.85                   524.79                   565.05                   588.04                   592.84                   128.03                   142.68                   171.08                   178.78                   183.69                   185.14                   55.552                   58.820                   64.950                   66.586                   67.620                   67.966                   46.306                   47.744                   50.396                   51.106                   51.556                   51.710                   43.987                   44.649                   45.755                   46.025                   46.168                   46.216
18.000                   3.0000                   1.0000                   1.7000                   2000.0                   2500.0                   45.000                   564.20                   663.07                   915.40                   978.76                   1004.6                   1008.3                   565.38                   671.97                   1010.1                   1080.8                   1098.2                   1099.3                   566.76                   677.32                   1058.2                   1120.8                   1133.6                   1133.8                   564.14                   665.03                   933.76                   999.52                   1024.3                   1027.6                   536.38                   631.17                   884.60                   968.34                   1004.0                   1009.4                   376.71                   437.78                   570.42                   610.09                   632.56                   637.13                   146.41                   161.30                   189.89                   197.56                   202.43                   203.85                   60.213                   63.440                   69.488                   71.081                   72.090                   72.428                   48.408                   49.821                   52.467                   53.167                   53.612                   53.762                   45.210                   45.870                   46.952                   47.201                   47.349                   47.397
18.000                   3.0000                   1.0000                   1.7000                   2000.0                   2500.0                   50.000                   614.41                   705.58                   929.84                   976.15                   995.11                   997.75                   617.51                   723.52                   1055.5                   1101.8                   1111.1                   1110.9                   619.65                   733.92                   1107.1                   1144.8                   1150.4                   1149.5                   614.95                   709.91                   958.37                   1007.3                   1024.6                   1026.6                   585.82                   676.44                   931.34                   1004.3                   1033.1                   1037.0                   418.67                   479.48                   610.31                   649.57                   671.75                   676.17                   164.83                   179.86                   208.71                   216.48                   221.41                   222.85                   64.980                   68.187                   74.209                   75.800                   76.811                   77.149                   50.590                   51.994                   54.630                   55.327                   55.770                   55.921                   46.544                   47.198                   48.264                   48.508                   48.654                   48.702
18.000                   3.0000                   1.0000                   1.7000                   2000.0                   2500.0                   55.000                   656.98                   741.46                   948.82                   985.33                   1000.0                   1001.9                   662.15                   771.58                   1079.9                   1111.6                   1116.7                   1116.0                   665.13                   788.96                   1125.9                   1150.6                   1152.7                   1151.3                   658.17                   748.69                   982.81                   1021.6                   1034.1                   1035.3                   629.36                   717.09                   990.74                   1051.2                   1069.6                   1071.3                   457.21                   517.15                   644.52                   682.93                   704.49                   708.73                   183.14                   198.28                   227.44                   235.32                   240.32                   241.76                   69.876                   73.081                   79.113                   80.711                   81.727                   82.067                   52.869                   54.268                   56.900                   57.597                   58.041                   58.191                   47.987                   48.637                   49.693                   49.935                   50.080                   50.128
18.000                   3.0000                   1.0000                   1.7000                   2000.0                   2500.0                   60.000                   691.75                   776.67                   972.67                   1002.7                   1013.9                   1015.1                   698.41                   820.13                   1093.8                   1116.6                   1119.3                   1118.2                   701.93                   843.37                   1132.1                   1149.3                   1149.6                   1148.0                   693.40                   787.31                   1007.9                   1039.4                   1048.2                   1048.6                   667.43                   758.35                   1050.8                   1092.8                   1101.2                   1100.9                   492.55                   550.95                   673.54                   710.41                   731.14                   735.18                   201.24                   216.48                   245.94                   253.91                   258.97                   260.42                   74.914                   78.125                   84.181                   85.788                   86.809                   87.151                   55.252                   56.650                   59.281                   59.978                   60.422                   60.572                   49.540                   50.186                   51.236                   51.477                   51.621                   51.669
18.000                   3.0000                   1.0000                   1.7000                   2000.0                   2500.0                   65.000                   718.55                   816.31                   1002.1                   1027.2                   1035.1                   1035.5                   727.23                   864.13                   1100.7                   1118.1                   1119.2                   1117.8                   731.91                   888.18                   1131.3                   1144.3                   1143.5                   1141.8                   720.59                   827.99                   1032.0                   1057.3                   1063.2                   1063.0                   697.59                   804.80                   1081.5                   1109.9                   1113.8                   1112.8                   523.58                   579.90                   697.88                   733.75                   754.08                   758.01                   218.90                   234.26                   264.03                   272.11                   277.24                   278.68                   80.167                   83.393                   89.485                   91.103                   92.133                   92.477                   57.806                   59.205                   61.841                   62.541                   62.986                   63.136                   51.261                   51.904                   52.952                   53.192                   53.336                   53.383
18.000                   3.0000                   1.0000                   1.7000                   2000.0                   2500.0                   70.000                   741.90                   858.54                   1034.3                   1054.8                   1059.3                   1058.8                   753.50                   904.37                   1104.7                   1117.8                   1117.7                   1116.2                   760.12                   926.64                   1128.0                   1137.8                   1136.3                   1134.5                   744.44                   869.26                   1054.8                   1074.3                   1077.6                   1076.8                   723.25                   853.87                   1098.0                   1117.3                   1118.7                   1117.3                   552.21                   606.25                   719.98                   755.33                   775.55                   779.39                   236.30                   251.78                   281.85                   290.03                   295.22                   296.67                   85.544                   88.788                   94.919                   96.549                   97.586                   97.932                   60.462                   61.864                   64.506                   65.208                   65.654                   65.805                   53.079                   53.722                   54.767                   55.006                   55.150                   55.197
18.000                   3.0000                   1.0000                   1.7000                   2000.0                   2500.0                   75.000                   776.67                   900.07                   1059.6                   1075.2                   1077.2                   1076.2                   791.69                   940.06                   1108.5                   1118.2                   1117.2                   1115.5                   800.03                   959.34                   1125.9                   1133.2                   1131.2                   1129.3                   779.52                   908.82                   1073.1                   1087.6                   1088.8                   1087.6                   754.98                   898.78                   1108.4                   1121.6                   1121.3                   1119.7                   577.86                   629.84                   740.57                   776.20                   796.39                   800.15                   253.27                   268.86                   299.19                   307.45                   312.70                   314.15                   91.076                   94.339                   100.51                   102.16                   103.20                   103.55                   63.263                   64.670                   67.322                   68.026                   68.474                   68.625                   55.038                   55.679                   56.723                   56.962                   57.105                   57.152