% Model:              batchmodel_COIL_N_18_COIL_kr_2.25_COIL_kh_2_COIL_kturn_1.4_FUNZ_freq_10000_FUNZ_I_eff_2500.mph
% Version:            COMSOL 5.6.0.280
% Date:               Feb 1 2022, 22:51
% Table:              Tabella 1 - GRIGLIA_T
% COIL_N                 COIL_kr                  COIL_kh                  COIL_kturn               FUNZ_freq                FUNZ_I_eff               Time (s)                 Temperatura (degC), Punto: (0, 0)Temperatura (degC), Punto: (15, 0)Temperatura (degC), Punto: (28.051, 0)Temperatura (degC), Punto: (29.025, 0)Temperatura (degC), Punto: (29.61, 0)Temperatura (degC), Punto: (29.805, 0)Temperatura (degC), Punto: (0, 62.5)Temperatura (degC), Punto: (15, 62.5)Temperatura (degC), Punto: (28.051, 62.5)Temperatura (degC), Punto: (29.025, 62.5)Temperatura (degC), Punto: (29.61, 62.5)Temperatura (degC), Punto: (29.805, 62.5)Temperatura (degC), Punto: (0, 125)Temperatura (degC), Punto: (15, 125)Temperatura (degC), Punto: (28.051, 125)Temperatura (degC), Punto: (29.025, 125)Temperatura (degC), Punto: (29.61, 125)Temperatura (degC), Punto: (29.805, 125)Temperatura (degC), Punto: (0, 187.5)Temperatura (degC), Punto: (15, 187.5)Temperatura (degC), Punto: (28.051, 187.5)Temperatura (degC), Punto: (29.025, 187.5)Temperatura (degC), Punto: (29.61, 187.5)Temperatura (degC), Punto: (29.805, 187.5)Temperatura (degC), Punto: (0, 250)Temperatura (degC), Punto: (15, 250)Temperatura (degC), Punto: (28.051, 250)Temperatura (degC), Punto: (29.025, 250)Temperatura (degC), Punto: (29.61, 250)Temperatura (degC), Punto: (29.805, 250)Temperatura (degC), Punto: (0, 312.5)Temperatura (degC), Punto: (15, 312.5)Temperatura (degC), Punto: (28.051, 312.5)Temperatura (degC), Punto: (29.025, 312.5)Temperatura (degC), Punto: (29.61, 312.5)Temperatura (degC), Punto: (29.805, 312.5)Temperatura (degC), Punto: (0, 375)Temperatura (degC), Punto: (15, 375)Temperatura (degC), Punto: (28.051, 375)Temperatura (degC), Punto: (29.025, 375)Temperatura (degC), Punto: (29.61, 375)Temperatura (degC), Punto: (29.805, 375)Temperatura (degC), Punto: (0, 437.5)Temperatura (degC), Punto: (15, 437.5)Temperatura (degC), Punto: (28.051, 437.5)Temperatura (degC), Punto: (29.025, 437.5)Temperatura (degC), Punto: (29.61, 437.5)Temperatura (degC), Punto: (29.805, 437.5)Temperatura (degC), Punto: (0, 468.75)Temperatura (degC), Punto: (15, 468.75)Temperatura (degC), Punto: (28.051, 468.75)Temperatura (degC), Punto: (29.025, 468.75)Temperatura (degC), Punto: (29.61, 468.75)Temperatura (degC), Punto: (29.805, 468.75)Temperatura (degC), Punto: (0, 492.19)Temperatura (degC), Punto: (15, 492.19)Temperatura (degC), Punto: (28.051, 492.19)Temperatura (degC), Punto: (29.025, 492.19)Temperatura (degC), Punto: (29.61, 492.19)Temperatura (degC), Punto: (29.805, 492.19)
18.000                   2.2500                   2.0000                   1.4000                   10000                    2500.0                   0.0000                   20.000                   20.000                   20.000                   20.000                   20.112                   20.312                   20.000                   20.000                   20.000                   20.000                   20.112                   20.313                   20.000                   20.000                   20.000                   20.000                   20.113                   20.314                   20.000                   20.000                   20.000                   20.000                   20.113                   20.316                   20.000                   20.000                   20.000                   20.000                   20.114                   20.316                   20.000                   20.000                   20.000                   20.000                   20.114                   20.316                   20.000                   20.000                   20.000                   20.000                   20.113                   20.315                   20.000                   20.000                   20.000                   20.000                   20.112                   20.313                   20.000                   20.000                   20.000                   20.000                   20.107                   20.304                   20.000                   20.000                   20.000                   20.000                   20.077                   20.246
18.000                   2.2500                   2.0000                   1.4000                   10000                    2500.0                   5.0000                   27.839                   58.585                   246.88                   274.91                   292.20                   296.37                   27.727                   58.290                   244.70                   272.68                   290.03                   294.23                   27.803                   58.591                   245.16                   273.17                   290.76                   295.07                   27.766                   58.474                   245.44                   273.50                   290.85                   295.06                   27.754                   58.374                   245.29                   273.54                   291.16                   295.39                   27.768                   58.535                   247.01                   275.40                   292.98                   297.23                   27.712                   58.175                   244.06                   272.23                   289.70                   293.92                   27.710                   58.096                   242.48                   270.27                   287.55                   291.76                   27.551                   57.572                   238.92                   265.52                   281.93                   285.94                   28.945                   57.555                   205.57                   225.36                   237.68                   240.85
18.000                   2.2500                   2.0000                   1.4000                   10000                    2500.0                   10.000                   80.280                   151.27                   424.36                   462.99                   485.67                   490.67                   79.973                   150.89                   424.74                   463.53                   486.15                   491.17                   80.261                   151.16                   424.60                   463.59                   486.11                   491.08                   80.101                   151.05                   425.13                   464.49                   487.74                   492.80                   80.012                   150.92                   425.18                   464.14                   486.83                   491.91                   80.051                   151.00                   425.26                   464.44                   487.35                   492.40                   79.839                   150.77                   425.64                   464.62                   487.42                   492.42                   79.537                   149.56                   418.68                   457.15                   479.77                   484.75                   77.725                   145.27                   399.31                   434.58                   455.46                   460.15                   76.361                   135.87                   329.43                   353.23                   367.72                   371.30
18.000                   2.2500                   2.0000                   1.4000                   10000                    2500.0                   15.000                   163.72                   258.79                   607.68                   656.95                   683.99                   689.74                   163.39                   258.61                   605.63                   653.16                   678.95                   684.54                   163.69                   259.00                   612.86                   663.94                   691.09                   696.56                   163.60                   259.23                   616.17                   668.35                   697.41                   703.08                   163.43                   258.98                   612.27                   662.54                   689.41                   695.20                   163.38                   258.88                   613.87                   665.50                   693.35                   699.10                   163.17                   258.52                   609.98                   660.02                   687.70                   693.24                   162.08                   256.40                   604.56                   654.77                   682.03                   687.64                   156.18                   245.11                   567.53                   612.05                   636.81                   642.06                   149.99                   227.47                   459.98                   486.41                   500.97                   504.56
18.000                   2.2500                   2.0000                   1.4000                   10000                    2500.0                   20.000                   257.02                   365.34                   768.66                   836.43                   872.25                   878.97                   256.81                   365.37                   768.58                   836.24                   872.11                   878.82                   257.04                   365.85                   773.45                   842.43                   878.57                   885.30                   257.19                   366.40                   776.88                   846.61                   882.88                   889.63                   256.98                   366.17                   775.64                   845.03                   881.20                   887.94                   256.82                   365.93                   775.71                   845.22                   881.48                   888.23                   256.55                   365.34                   772.24                   841.09                   877.24                   883.97                   254.51                   362.27                   763.02                   829.98                   865.61                   872.30                   243.73                   344.82                   708.55                   764.85                   795.71                   801.79                   232.24                   319.31                   587.51                   621.20                   640.56                   644.69
18.000                   2.2500                   2.0000                   1.4000                   10000                    2500.0                   25.000                   348.75                   465.22                   927.99                   996.77                   1027.2                   1032.2                   348.66                   465.38                   928.57                   997.20                   1027.5                   1032.5                   348.83                   465.79                   934.09                   1003.7                   1033.8                   1038.7                   349.18                   466.52                   938.39                   1008.2                   1037.9                   1042.6                   348.98                   466.36                   938.77                   1008.7                   1038.3                   1043.1                   348.73                   466.06                   940.22                   1010.8                   1040.4                   1045.2                   348.42                   465.42                   933.97                   1003.5                   1033.6                   1038.5                   345.42                   461.48                   925.16                   995.86                   1027.1                   1032.3                   330.20                   438.79                   841.02                   907.80                   940.49                   946.38                   313.97                   407.33                   688.39                   723.23                   743.11                   747.23
18.000                   2.2500                   2.0000                   1.4000                   10000                    2500.0                   30.000                   432.28                   548.89                   947.52                   988.87                   1008.2                   1011.5                   432.30                   549.06                   940.81                   980.27                   998.92                   1002.2                   432.60                   551.58                   1036.5                   1081.6                   1093.7                   1094.8                   433.04                   551.63                   964.93                   1000.1                   1014.5                   1016.8                   432.86                   551.32                   943.98                   975.96                   990.47                   993.06                   432.64                   552.61                   1083.9                   1124.9                   1134.3                   1134.9                   432.22                   550.40                   961.50                   997.53                   1013.0                   1015.6                   428.60                   546.13                   940.39                   975.37                   991.38                   994.21                   409.93                   519.76                   917.26                   969.01                   993.64                   997.98                   389.84                   483.47                   747.58                   780.29                   798.92                   802.68
18.000                   2.2500                   2.0000                   1.4000                   10000                    2500.0                   35.000                   503.85                   613.64                   955.24                   986.54                   1001.6                   1004.3                   503.98                   613.89                   950.23                   980.40                   995.07                   997.70                   504.95                   620.29                   1053.1                   1080.5                   1087.9                   1088.4                   505.36                   619.19                   987.98                   1014.0                   1024.2                   1025.6                   505.18                   618.52                   965.34                   989.46                   1000.2                   1002.0                   505.09                   621.99                   1096.7                   1120.5                   1125.8                   1125.9                   504.34                   617.59                   996.96                   1025.8                   1036.6                   1038.2                   500.61                   613.35                   953.19                   977.76                   989.12                   991.14                   479.37                   586.00                   954.05                   993.76                   1012.4                   1015.6                   456.19                   546.35                   799.55                   832.66                   850.74                   854.29
18.000                   2.2500                   2.0000                   1.4000                   10000                    2500.0                   40.000                   564.38                   664.75                   968.73                   992.53                   1003.8                   1005.8                   564.61                   665.10                   967.93                   991.27                   1002.3                   1004.3                   566.40                   674.18                   1064.8                   1086.0                   1091.4                   1091.6                   566.72                   672.46                   1016.7                   1038.4                   1045.9                   1046.7                   566.52                   671.64                   998.07                   1018.5                   1026.4                   1027.6                   566.51                   676.10                   1098.1                   1116.4                   1120.2                   1120.1                   565.43                   670.62                   1032.5                   1056.6                   1064.1                   1064.8                   561.97                   666.48                   980.80                   1001.1                   1009.9                   1011.4                   539.34                   640.58                   999.15                   1031.0                   1043.5                   1045.3                   513.46                   598.48                   846.58                   877.91                   894.62                   897.84
18.000                   2.2500                   2.0000                   1.4000                   10000                    2500.0                   45.000                   615.82                   707.07                   988.56                   1006.8                   1014.8                   1016.0                   616.10                   707.63                   990.84                   1009.1                   1017.0                   1018.2                   618.48                   717.91                   1072.0                   1088.4                   1092.2                   1092.2                   618.74                   716.15                   1043.5                   1061.0                   1066.0                   1066.3                   618.53                   715.33                   1032.8                   1050.2                   1055.5                   1055.9                   618.51                   719.78                   1093.4                   1108.0                   1110.8                   1110.6                   617.24                   714.01                   1055.5                   1074.4                   1079.4                   1079.7                   614.23                   710.24                   1012.0                   1029.6                   1035.9                   1036.7                   591.72                   687.47                   1049.8                   1074.0                   1080.8                   1081.3                   563.98                   642.88                   883.94                   911.99                   926.72                   929.52
18.000                   2.2500                   2.0000                   1.4000                   10000                    2500.0                   50.000                   658.59                   743.04                   1018.9                   1034.2                   1039.5                   1040.1                   658.88                   743.70                   1021.9                   1037.4                   1042.7                   1043.2                   661.54                   755.03                   1076.0                   1088.7                   1091.3                   1091.1                   661.77                   753.58                   1064.0                   1077.4                   1080.4                   1080.3                   661.58                   752.84                   1060.4                   1074.1                   1077.3                   1077.2                   661.47                   756.57                   1087.3                   1099.2                   1101.3                   1101.0                   660.15                   750.70                   1067.5                   1081.9                   1085.2                   1085.1                   657.64                   747.18                   1043.4                   1058.3                   1062.5                   1062.6                   636.55                   727.32                   1078.7                   1095.3                   1098.8                   1098.7                   607.81                   680.43                   912.28                   936.57                   949.24                   951.62
18.000                   2.2500                   2.0000                   1.4000                   10000                    2500.0                   55.000                   688.91                   778.00                   1045.5                   1058.2                   1061.7                   1061.8                   689.09                   778.64                   1047.7                   1060.4                   1063.9                   1064.0                   691.55                   789.82                   1081.0                   1091.3                   1093.0                   1092.7                   691.77                   788.97                   1075.6                   1086.2                   1088.2                   1087.9                   691.61                   788.39                   1074.3                   1085.1                   1087.1                   1086.8                   691.43                   790.76                   1087.3                   1097.2                   1098.7                   1098.3                   690.26                   785.34                   1075.4                   1086.7                   1089.0                   1088.7                   688.29                   782.15                   1062.8                   1074.7                   1077.4                   1077.3                   670.02                   762.03                   1087.8                   1100.3                   1102.6                   1102.2                   641.69                   709.09                   932.38                   953.28                   964.13                   966.16
18.000                   2.2500                   2.0000                   1.4000                   10000                    2500.0                   60.000                   716.37                   813.08                   1069.9                   1079.8                   1081.7                   1081.4                   716.45                   813.70                   1071.0                   1080.8                   1082.7                   1082.3                   718.61                   824.32                   1086.5                   1094.5                   1095.6                   1095.1                   718.80                   824.12                   1085.5                   1093.6                   1094.7                   1094.2                   718.68                   823.71                   1085.4                   1093.6                   1094.7                   1094.2                   718.45                   824.62                   1089.1                   1097.0                   1098.0                   1097.5                   717.46                   819.81                   1083.0                   1091.6                   1092.9                   1092.5                   716.02                   817.02                   1078.8                   1087.9                   1089.3                   1088.9                   700.76                   795.87                   1093.4                   1102.7                   1104.1                   1103.6                   673.20                   735.83                   950.89                   968.53                   977.61                   979.30
18.000                   2.2500                   2.0000                   1.4000                   10000                    2500.0                   65.000                   737.42                   847.93                   1082.5                   1090.2                   1091.2                   1090.7                   737.49                   848.56                   1083.2                   1090.8                   1091.8                   1091.3                   739.83                   857.16                   1092.8                   1099.2                   1099.7                   1099.2                   740.10                   857.40                   1092.7                   1099.1                   1099.6                   1099.1                   739.98                   857.11                   1092.7                   1099.2                   1099.7                   1099.2                   739.60                   857.15                   1094.3                   1100.8                   1101.2                   1100.7                   738.54                   853.29                   1090.3                   1097.2                   1097.8                   1097.3                   737.07                   850.88                   1088.0                   1095.1                   1095.8                   1095.3                   721.91                   829.20                   1097.1                   1104.7                   1105.4                   1104.9                   696.26                   760.87                   968.19                   983.10                   990.54                   991.86
18.000                   2.2500                   2.0000                   1.4000                   10000                    2500.0                   70.000                   761.18                   882.01                   1093.8                   1099.5                   1099.7                   1099.1                   761.33                   882.65                   1094.3                   1099.9                   1100.0                   1099.4                   763.92                   889.32                   1099.0                   1104.0                   1104.0                   1103.4                   764.29                   889.90                   1099.6                   1104.6                   1104.5                   1103.9                   764.17                   889.73                   1099.8                   1104.8                   1104.8                   1104.1                   763.61                   889.06                   1099.8                   1104.8                   1104.8                   1104.1                   762.44                   886.09                   1097.5                   1102.7                   1102.8                   1102.1                   760.77                   883.98                   1096.5                   1101.8                   1101.9                   1101.3                   743.84                   861.72                   1100.8                   1106.7                   1107.0                   1106.4                   717.74                   787.11                   987.67                   1000.2                   1006.0                   1006.9
18.000                   2.2500                   2.0000                   1.4000                   10000                    2500.0                   75.000                   792.51                   913.95                   1101.7                   1105.9                   1105.6                   1104.9                   792.99                   914.56                   1102.1                   1106.2                   1105.9                   1105.2                   796.03                   919.55                   1105.2                   1109.1                   1108.6                   1107.9                   796.59                   920.25                   1105.9                   1109.7                   1109.3                   1108.5                   796.45                   920.15                   1106.1                   1109.9                   1109.5                   1108.8                   795.60                   919.28                   1105.8                   1109.7                   1109.3                   1108.5                   794.19                   917.01                   1104.2                   1108.2                   1107.8                   1107.1                   791.87                   914.93                   1103.3                   1107.4                   1107.0                   1106.3                   767.96                   891.99                   1104.3                   1109.0                   1108.9                   1108.2                   734.82                   816.70                   1013.2                   1024.3                   1028.5                   1028.9