% Model:              batchmodel_COIL_N_18_COIL_kr_3_COIL_kh_3_COIL_kturn_1.7_FUNZ_freq_6000_FUNZ_I_eff_4000.mph
% Version:            COMSOL 5.6.0.280
% Date:               Feb 2 2022, 09:51
% Table:              Tabella 1 - GRIGLIA_T
% COIL_N                 COIL_kr                  COIL_kh                  COIL_kturn               FUNZ_freq                FUNZ_I_eff               Time (s)                 Temperatura (degC), Punto: (0, 0)Temperatura (degC), Punto: (15, 0)Temperatura (degC), Punto: (27.483, 0)Temperatura (degC), Punto: (28.742, 0)Temperatura (degC), Punto: (29.497, 0)Temperatura (degC), Punto: (29.748, 0)Temperatura (degC), Punto: (0, 62.5)Temperatura (degC), Punto: (15, 62.5)Temperatura (degC), Punto: (27.483, 62.5)Temperatura (degC), Punto: (28.742, 62.5)Temperatura (degC), Punto: (29.497, 62.5)Temperatura (degC), Punto: (29.748, 62.5)Temperatura (degC), Punto: (0, 125)Temperatura (degC), Punto: (15, 125)Temperatura (degC), Punto: (27.483, 125)Temperatura (degC), Punto: (28.742, 125)Temperatura (degC), Punto: (29.497, 125)Temperatura (degC), Punto: (29.748, 125)Temperatura (degC), Punto: (0, 187.5)Temperatura (degC), Punto: (15, 187.5)Temperatura (degC), Punto: (27.483, 187.5)Temperatura (degC), Punto: (28.742, 187.5)Temperatura (degC), Punto: (29.497, 187.5)Temperatura (degC), Punto: (29.748, 187.5)Temperatura (degC), Punto: (0, 250)Temperatura (degC), Punto: (15, 250)Temperatura (degC), Punto: (27.483, 250)Temperatura (degC), Punto: (28.742, 250)Temperatura (degC), Punto: (29.497, 250)Temperatura (degC), Punto: (29.748, 250)Temperatura (degC), Punto: (0, 312.5)Temperatura (degC), Punto: (15, 312.5)Temperatura (degC), Punto: (27.483, 312.5)Temperatura (degC), Punto: (28.742, 312.5)Temperatura (degC), Punto: (29.497, 312.5)Temperatura (degC), Punto: (29.748, 312.5)Temperatura (degC), Punto: (0, 375)Temperatura (degC), Punto: (15, 375)Temperatura (degC), Punto: (27.483, 375)Temperatura (degC), Punto: (28.742, 375)Temperatura (degC), Punto: (29.497, 375)Temperatura (degC), Punto: (29.748, 375)Temperatura (degC), Punto: (0, 437.5)Temperatura (degC), Punto: (15, 437.5)Temperatura (degC), Punto: (27.483, 437.5)Temperatura (degC), Punto: (28.742, 437.5)Temperatura (degC), Punto: (29.497, 437.5)Temperatura (degC), Punto: (29.748, 437.5)Temperatura (degC), Punto: (0, 468.75)Temperatura (degC), Punto: (15, 468.75)Temperatura (degC), Punto: (27.483, 468.75)Temperatura (degC), Punto: (28.742, 468.75)Temperatura (degC), Punto: (29.497, 468.75)Temperatura (degC), Punto: (29.748, 468.75)Temperatura (degC), Punto: (0, 492.19)Temperatura (degC), Punto: (15, 492.19)Temperatura (degC), Punto: (27.483, 492.19)Temperatura (degC), Punto: (28.742, 492.19)Temperatura (degC), Punto: (29.497, 492.19)Temperatura (degC), Punto: (29.748, 492.19)
18.000                   3.0000                   3.0000                   1.7000                   6000.0                   4000.0                   0.0000                   20.000                   20.000                   20.000                   20.000                   20.049                   20.158                   20.000                   20.000                   20.000                   20.000                   20.054                   20.166                   20.000                   20.000                   20.000                   20.000                   20.051                   20.162                   20.000                   20.000                   20.000                   20.000                   20.050                   20.160                   20.000                   20.000                   20.000                   20.000                   20.054                   20.167                   20.000                   20.000                   20.000                   20.000                   20.049                   20.159                   20.000                   20.000                   20.000                   20.000                   20.053                   20.165                   20.000                   20.000                   20.000                   20.000                   20.053                   20.165                   20.000                   20.000                   20.000                   20.000                   20.057                   20.173                   20.000                   20.000                   20.000                   20.000                   20.057                   20.173
18.000                   3.0000                   3.0000                   1.7000                   6000.0                   4000.0                   5.0000                   25.110                   44.295                   158.30                   180.06                   193.10                   196.58                   25.141                   44.698                   163.34                   185.53                   198.74                   202.31                   25.096                   44.316                   158.52                   179.86                   193.04                   196.50                   25.066                   44.200                   157.39                   178.81                   191.93                   195.35                   25.151                   44.792                   164.07                   186.08                   199.40                   202.93                   25.107                   44.391                   159.20                   180.70                   193.82                   197.21                   25.103                   44.376                   158.62                   180.25                   193.53                   197.09                   25.207                   44.931                   163.13                   185.84                   199.79                   203.54                   25.453                   45.921                   169.43                   192.36                   206.16                   209.82                   31.318                   54.312                   171.31                   192.18                   204.50                   207.86
18.000                   3.0000                   3.0000                   1.7000                   6000.0                   4000.0                   10.000                   58.762                   108.61                   275.21                   302.37                   318.49                   322.50                   59.404                   110.36                   281.27                   308.11                   323.97                   327.88                   58.871                   108.83                   275.10                   301.01                   316.30                   320.22                   58.697                   108.44                   274.16                   301.00                   317.35                   321.42                   59.581                   110.82                   283.08                   310.50                   326.74                   330.68                   58.862                   108.67                   273.01                   299.14                   314.65                   318.46                   58.768                   108.36                   272.50                   298.89                   315.10                   319.15                   59.827                   111.14                   282.86                   310.45                   326.95                   331.17                   61.793                   114.83                   295.34                   323.89                   340.59                   344.67                   79.758                   131.62                   290.50                   314.62                   329.08                   332.87
18.000                   3.0000                   3.0000                   1.7000                   6000.0                   4000.0                   15.000                   120.45                   184.57                   373.23                   403.41                   421.50                   425.62                   122.10                   187.65                   382.21                   413.66                   432.46                   436.72                   121.03                   185.61                   376.52                   407.32                   425.79                   429.97                   120.67                   185.00                   374.77                   405.24                   423.42                   427.56                   122.36                   188.07                   383.15                   414.68                   433.48                   437.73                   120.72                   184.83                   373.20                   403.35                   421.44                   425.58                   120.64                   184.96                   376.09                   407.06                   425.54                   429.75                   123.12                   189.09                   384.71                   416.33                   435.18                   439.42                   127.28                   194.45                   393.67                   425.63                   444.60                   448.88                   143.89                   208.51                   383.45                   409.82                   425.53                   429.15
18.000                   3.0000                   3.0000                   1.7000                   6000.0                   4000.0                   20.000                   188.89                   261.49                   474.76                   509.46                   529.88                   534.34                   191.60                   266.25                   490.18                   526.95                   548.63                   553.31                   190.07                   263.55                   481.66                   517.69                   538.99                   543.56                   189.58                   262.83                   479.38                   514.83                   535.44                   539.92                   191.91                   266.81                   491.60                   528.42                   550.07                   554.82                   189.39                   262.25                   476.65                   511.10                   531.47                   536.05                   189.67                   263.41                   483.81                   520.12                   541.03                   545.52                   193.17                   268.20                   491.59                   528.09                   549.41                   554.05                   198.37                   273.40                   495.40                   531.07                   552.08                   556.71                   213.30                   284.56                   474.38                   502.80                   518.99                   522.60
18.000                   3.0000                   3.0000                   1.7000                   6000.0                   4000.0                   25.000                   258.85                   338.24                   578.68                   619.97                   643.52                   648.41                   262.31                   343.86                   593.76                   637.15                   661.80                   666.88                   260.44                   340.79                   585.60                   628.00                   652.15                   657.13                   259.92                   340.05                   583.54                   625.50                   649.33                   654.25                   262.75                   344.60                   595.58                   639.15                   663.88                   669.00                   259.53                   339.21                   580.65                   621.97                   645.56                   650.50                   260.40                   341.31                   589.12                   632.16                   656.47                   661.46                   264.12                   345.89                   595.28                   638.45                   662.90                   667.96                   268.52                   349.14                   593.16                   634.88                   658.64                   663.57                   279.19                   354.78                   558.10                   589.33                   607.29                   611.14
18.000                   3.0000                   3.0000                   1.7000                   6000.0                   4000.0                   30.000                   326.59                   410.85                   667.99                   714.61                   741.13                   746.44                   330.53                   416.90                   683.16                   732.89                   760.84                   766.34                   328.41                   413.61                   674.62                   722.50                   749.62                   755.02                   327.89                   412.85                   672.54                   719.97                   746.91                   752.28                   331.08                   417.76                   684.93                   734.81                   762.87                   768.41                   327.33                   411.83                   669.53                   716.31                   742.84                   748.15                   328.76                   414.69                   679.44                   728.70                   756.49                   761.97                   332.39                   418.79                   684.29                   733.85                   761.69                   767.16                   335.43                   419.81                   676.64                   723.27                   749.77                   755.05                   341.92                   420.53                   632.95                   666.55                   685.75                   689.75
18.000                   3.0000                   3.0000                   1.7000                   6000.0                   4000.0                   35.000                   391.38                   478.86                   748.66                   801.21                   830.24                   835.84                   395.62                   485.14                   766.34                   822.81                   853.43                   859.19                   393.32                   481.67                   755.57                   809.46                   839.07                   844.75                   392.79                   480.88                   753.16                   806.62                   836.14                   841.78                   396.26                   486.04                   767.66                   823.93                   854.61                   860.42                   392.11                   479.70                   749.34                   801.88                   830.74                   836.31                   394.04                   483.25                   762.73                   818.81                   849.35                   855.08                   397.37                   486.76                   766.68                   823.03                   853.52                   859.23                   398.76                   485.47                   752.50                   804.52                   833.38                   838.93                   401.63                   481.96                   697.65                   732.91                   752.94                   757.02
18.000                   3.0000                   3.0000                   1.7000                   6000.0                   4000.0                   40.000                   451.81                   541.25                   831.36                   890.51                   920.37                   925.78                   456.24                   547.74                   853.59                   915.43                   945.94                   951.35                   453.80                   544.05                   839.56                   899.51                   929.55                   934.98                   453.25                   543.20                   836.37                   896.15                   926.26                   931.68                   456.94                   548.65                   854.20                   915.22                   945.66                   951.13                   452.46                   541.83                   830.69                   889.50                   919.07                   924.44                   454.86                   546.10                   849.92                   912.07                   942.75                   948.14                   457.79                   549.07                   853.78                   915.83                   946.31                   951.67                   457.41                   545.44                   830.71                   888.67                   918.23                   923.62                   457.17                   537.71                   751.78                   788.82                   809.65                   813.76
18.000                   3.0000                   3.0000                   1.7000                   6000.0                   4000.0                   45.000                   507.99                   598.07                   914.32                   972.36                   999.44                   1004.0                   512.56                   604.71                   940.00                   999.47                   1025.8                   1030.1                   509.99                   600.85                   923.57                   981.78                   1008.7                   1013.1                   509.40                   599.88                   919.31                   977.43                   1004.4                   1009.0                   513.32                   605.60                   939.14                   997.53                   1023.7                   1028.0                   508.49                   598.31                   912.16                   969.84                   996.83                   1001.4                   511.36                   603.28                   935.10                   994.32                   1021.0                   1025.3                   513.90                   605.82                   940.27                   999.64                   1025.9                   1030.2                   511.67                   599.85                   908.96                   966.15                   993.16                   997.76                   508.57                   587.83                   803.23                   843.27                   864.52                   868.52
18.000                   3.0000                   3.0000                   1.7000                   6000.0                   4000.0                   50.000                   560.03                   648.30                   964.57                   1011.1                   1031.1                   1034.2                   564.81                   656.56                   1045.0                   1087.7                   1098.8                   1099.6                   562.00                   651.15                   981.11                   1029.0                   1047.5                   1050.0                   561.35                   649.99                   972.98                   1020.5                   1039.9                   1042.7                   565.54                   656.59                   992.91                   1034.3                   1048.7                   1050.5                   560.34                   648.31                   965.39                   1012.5                   1032.6                   1035.6                   563.61                   653.54                   973.82                   1017.7                   1035.7                   1038.4                   565.84                   656.21                   970.76                   1009.1                   1024.9                   1027.3                   561.76                   647.72                   945.37                   989.22                   1009.6                   1013.0                   555.88                   631.82                   850.90                   888.90                   908.56                   912.15
18.000                   3.0000                   3.0000                   1.7000                   6000.0                   4000.0                   55.000                   605.72                   689.90                   985.93                   1022.5                   1037.4                   1039.6                   611.01                   701.33                   1079.8                   1106.5                   1112.1                   1112.1                   607.75                   693.89                   1036.1                   1073.1                   1083.4                   1084.3                   607.03                   692.43                   1020.5                   1058.5                   1070.3                   1071.5                   611.52                   699.53                   1016.3                   1045.8                   1055.0                   1055.9                   605.99                   690.75                   1006.7                   1043.5                   1056.3                   1057.8                   609.40                   695.02                   984.95                   1015.7                   1028.1                   1029.9                   611.55                   698.36                   990.16                   1018.4                   1029.3                   1030.8                   605.86                   687.88                   969.09                   1004.5                   1020.4                   1022.9                   597.64                   669.59                   893.09                   928.37                   946.19                   949.37
18.000                   3.0000                   3.0000                   1.7000                   6000.0                   4000.0                   60.000                   644.64                   723.46                   994.57                   1024.2                   1036.1                   1037.8                   650.63                   738.95                   1086.7                   1106.7                   1110.7                   1110.4                   646.96                   730.10                   1066.0                   1092.5                   1098.5                   1098.6                   646.20                   728.40                   1050.1                   1077.7                   1084.7                   1085.0                   650.79                   735.04                   1030.7                   1054.3                   1061.2                   1061.7                   645.15                   726.79                   1043.3                   1071.1                   1078.7                   1079.1                   648.44                   729.20                   996.76                   1020.4                   1029.5                   1030.6                   650.63                   733.15                   1006.1                   1029.1                   1037.4                   1038.3                   643.88                   721.87                   995.27                   1024.4                   1036.1                   1037.7                   633.89                   701.88                   927.63                   959.00                   974.64                   977.37
18.000                   3.0000                   3.0000                   1.7000                   6000.0                   4000.0                   65.000                   677.57                   752.10                   998.65                   1022.5                   1032.2                   1033.5                   684.13                   773.36                   1089.2                   1105.2                   1108.0                   1107.6                   680.31                   762.72                   1075.0                   1094.6                   1098.6                   1098.4                   679.57                   760.87                   1062.1                   1082.5                   1087.2                   1087.1                   683.97                   767.18                   1043.0                   1062.5                   1067.8                   1067.9                   678.55                   759.32                   1063.6                   1084.5                   1089.3                   1089.2                   681.49                   759.81                   1011.9                   1031.6                   1038.4                   1039.0                   683.64                   764.36                   1019.7                   1039.2                   1045.6                   1046.1                   676.63                   752.90                   1027.6                   1051.5                   1058.9                   1059.5                   665.47                   729.75                   952.98                   979.79                   992.94                   995.18
18.000                   3.0000                   3.0000                   1.7000                   6000.0                   4000.0                   70.000                   704.53                   779.38                   1002.1                   1021.0                   1028.6                   1029.6                   711.16                   807.04                   1089.6                   1102.7                   1104.6                   1104.1                   707.51                   794.90                   1076.6                   1092.2                   1095.3                   1094.9                   706.88                   793.08                   1067.1                   1083.2                   1086.6                   1086.4                   710.74                   799.24                   1053.2                   1069.3                   1073.2                   1073.1                   705.95                   791.59                   1073.4                   1089.7                   1092.9                   1092.6                   708.34                   790.52                   1028.1                   1044.8                   1049.8                   1050.1                   710.29                   795.25                   1032.5                   1049.1                   1054.0                   1054.3                   703.97                   784.97                   1054.9                   1073.1                   1077.3                   1077.2                   692.55                   755.19                   971.98                   994.39                   1005.1                   1006.8
18.000                   3.0000                   3.0000                   1.7000                   6000.0                   4000.0                   75.000                   725.19                   807.29                   1008.4                   1023.5                   1029.3                   1029.9                   731.81                   838.95                   1088.1                   1099.0                   1100.3                   1099.7                   728.30                   826.44                   1075.1                   1088.0                   1090.3                   1089.9                   727.81                   825.07                   1069.9                   1083.0                   1085.5                   1085.1                   731.24                   831.04                   1061.4                   1074.4                   1077.1                   1076.8                   726.95                   823.62                   1077.3                   1090.4                   1092.7                   1092.3                   728.90                   822.07                   1043.4                   1057.4                   1061.0                   1060.9                   730.63                   826.11                   1044.5                   1058.6                   1062.3                   1062.2                   725.31                   818.93                   1071.9                   1085.2                   1087.5                   1087.0                   714.66                   781.53                   991.54                   1010.3                   1018.6                   1019.7