% Model:              batchmodel_COIL_N_18_COIL_kr_3_COIL_kh_3_COIL_kturn_1.1_FUNZ_freq_2000_FUNZ_I_eff_4000.mph
% Version:            COMSOL 5.6.0.280
% Date:               Feb 2 2022, 07:19
% Table:              Tabella 1 - GRIGLIA_T
% COIL_N                 COIL_kr                  COIL_kh                  COIL_kturn               FUNZ_freq                FUNZ_I_eff               Time (s)                 Temperatura (degC), Punto: (0, 0)Temperatura (degC), Punto: (15, 0)Temperatura (degC), Punto: (25.641, 0)Temperatura (degC), Punto: (27.821, 0)Temperatura (degC), Punto: (29.128, 0)Temperatura (degC), Punto: (29.564, 0)Temperatura (degC), Punto: (0, 62.5)Temperatura (degC), Punto: (15, 62.5)Temperatura (degC), Punto: (25.641, 62.5)Temperatura (degC), Punto: (27.821, 62.5)Temperatura (degC), Punto: (29.128, 62.5)Temperatura (degC), Punto: (29.564, 62.5)Temperatura (degC), Punto: (0, 125)Temperatura (degC), Punto: (15, 125)Temperatura (degC), Punto: (25.641, 125)Temperatura (degC), Punto: (27.821, 125)Temperatura (degC), Punto: (29.128, 125)Temperatura (degC), Punto: (29.564, 125)Temperatura (degC), Punto: (0, 187.5)Temperatura (degC), Punto: (15, 187.5)Temperatura (degC), Punto: (25.641, 187.5)Temperatura (degC), Punto: (27.821, 187.5)Temperatura (degC), Punto: (29.128, 187.5)Temperatura (degC), Punto: (29.564, 187.5)Temperatura (degC), Punto: (0, 250)Temperatura (degC), Punto: (15, 250)Temperatura (degC), Punto: (25.641, 250)Temperatura (degC), Punto: (27.821, 250)Temperatura (degC), Punto: (29.128, 250)Temperatura (degC), Punto: (29.564, 250)Temperatura (degC), Punto: (0, 312.5)Temperatura (degC), Punto: (15, 312.5)Temperatura (degC), Punto: (25.641, 312.5)Temperatura (degC), Punto: (27.821, 312.5)Temperatura (degC), Punto: (29.128, 312.5)Temperatura (degC), Punto: (29.564, 312.5)Temperatura (degC), Punto: (0, 375)Temperatura (degC), Punto: (15, 375)Temperatura (degC), Punto: (25.641, 375)Temperatura (degC), Punto: (27.821, 375)Temperatura (degC), Punto: (29.128, 375)Temperatura (degC), Punto: (29.564, 375)Temperatura (degC), Punto: (0, 437.5)Temperatura (degC), Punto: (15, 437.5)Temperatura (degC), Punto: (25.641, 437.5)Temperatura (degC), Punto: (27.821, 437.5)Temperatura (degC), Punto: (29.128, 437.5)Temperatura (degC), Punto: (29.564, 437.5)Temperatura (degC), Punto: (0, 468.75)Temperatura (degC), Punto: (15, 468.75)Temperatura (degC), Punto: (25.641, 468.75)Temperatura (degC), Punto: (27.821, 468.75)Temperatura (degC), Punto: (29.128, 468.75)Temperatura (degC), Punto: (29.564, 468.75)Temperatura (degC), Punto: (0, 492.19)Temperatura (degC), Punto: (15, 492.19)Temperatura (degC), Punto: (25.641, 492.19)Temperatura (degC), Punto: (27.821, 492.19)Temperatura (degC), Punto: (29.128, 492.19)Temperatura (degC), Punto: (29.564, 492.19)
18.000                   3.0000                   3.0000                   1.1000                   2000.0                   4000.0                   0.0000                   20.000                   20.000                   20.000                   20.000                   20.038                   20.093                   20.000                   20.000                   20.000                   20.000                   20.038                   20.093                   20.000                   20.000                   20.000                   20.000                   20.038                   20.093                   20.000                   20.000                   20.000                   20.000                   20.038                   20.093                   20.000                   20.000                   20.000                   20.000                   20.038                   20.093                   20.000                   20.000                   20.000                   20.000                   20.038                   20.093                   20.000                   20.000                   20.000                   20.000                   20.038                   20.093                   20.000                   20.000                   20.000                   20.000                   20.038                   20.094                   20.000                   20.000                   20.000                   20.000                   20.039                   20.095                   20.000                   20.000                   20.000                   20.000                   20.033                   20.086
18.000                   3.0000                   3.0000                   1.1000                   2000.0                   4000.0                   5.0000                   26.052                   45.780                   126.49                   157.12                   177.20                   182.19                   26.047                   45.756                   126.21                   156.53                   176.47                   181.50                   26.045                   45.749                   126.30                   156.80                   176.82                   181.79                   26.054                   45.809                   126.74                   157.37                   177.53                   182.60                   26.056                   45.835                   127.23                   158.19                   178.63                   183.73                   26.018                   45.612                   125.52                   155.66                   175.37                   180.31                   25.878                   45.002                   122.87                   151.94                   170.94                   175.75                   25.990                   45.451                   124.26                   153.84                   173.12                   177.91                   25.994                   45.371                   123.77                   152.85                   171.61                   176.28                   28.592                   48.393                   119.61                   144.46                   160.86                   165.37
18.000                   3.0000                   3.0000                   1.1000                   2000.0                   4000.0                   10.000                   60.066                   105.59                   220.24                   257.04                   280.46                   285.93                   60.012                   105.44                   220.05                   257.21                   280.59                   286.01                   60.061                   105.59                   220.48                   257.65                   280.71                   286.09                   60.102                   105.69                   220.44                   257.05                   279.93                   285.37                   60.093                   105.73                   220.82                   257.62                   280.63                   286.10                   59.535                   104.20                   215.70                   251.28                   273.49                   278.71                   58.907                   103.16                   215.19                   251.34                   274.46                   279.92                   59.245                   103.66                   215.41                   251.44                   274.32                   279.78                   59.088                   103.10                   214.36                   250.55                   273.85                   279.27                   60.471                   102.83                   195.26                   222.47                   239.96                   244.24
18.000                   3.0000                   3.0000                   1.1000                   2000.0                   4000.0                   15.000                   116.88                   176.56                   317.69                   363.68                   391.53                   397.64                   116.76                   176.34                   317.41                   363.48                   391.39                   397.53                   117.06                   176.96                   318.80                   365.07                   392.98                   399.13                   117.03                   176.90                   318.90                   365.16                   393.32                   399.50                   116.86                   176.65                   318.64                   364.83                   393.05                   399.24                   115.10                   173.28                   310.77                   355.82                   383.31                   389.39                   114.51                   173.16                   313.30                   359.16                   386.82                   392.92                   114.90                   173.69                   313.91                   359.95                   388.08                   394.24                   113.61                   170.71                   305.11                   348.23                   374.57                   380.47                   115.16                   166.82                   278.11                   312.04                   333.04                   337.82
18.000                   3.0000                   3.0000                   1.1000                   2000.0                   4000.0                   20.000                   182.37                   252.20                   417.11                   471.51                   502.54                   508.98                   182.09                   251.67                   415.53                   469.10                   499.94                   506.45                   182.69                   252.69                   417.59                   471.54                   502.79                   509.32                   182.43                   252.20                   416.10                   469.24                   499.88                   506.36                   182.11                   251.90                   416.65                   470.77                   502.63                   509.23                   179.15                   247.17                   408.16                   461.54                   492.62                   499.10                   178.56                   246.82                   407.40                   459.89                   489.79                   496.01                   178.74                   247.00                   406.60                   458.32                   488.02                   494.19                   175.27                   240.51                   390.59                   437.86                   465.55                   471.49                   173.98                   231.62                   352.56                   387.64                   408.80                   413.55
18.000                   3.0000                   3.0000                   1.1000                   2000.0                   4000.0                   25.000                   249.92                   327.69                   511.61                   572.24                   605.26                   611.83                   249.41                   326.69                   508.48                   566.68                   599.00                   605.70                   250.25                   327.98                   510.66                   569.96                   603.07                   609.80                   249.69                   326.93                   507.62                   564.26                   595.58                   602.18                   249.29                   326.72                   508.37                   566.56                   599.95                   606.81                   245.25                   320.82                   499.15                   557.84                   590.38                   596.95                   244.39                   319.60                   494.53                   550.71                   581.19                   587.37                   244.09                   319.03                   492.32                   547.75                   577.76                   583.76                   237.93                   308.68                   468.94                   517.71                   545.46                   551.34                   233.66                   295.38                   420.68                   454.83                   474.90                   479.47
18.000                   3.0000                   3.0000                   1.1000                   2000.0                   4000.0                   30.000                   317.33                   400.79                   599.08                   665.25                   700.46                   707.28                   316.60                   399.51                   595.96                   660.48                   695.18                   702.05                   317.57                   400.83                   597.84                   663.08                   698.24                   705.13                   316.73                   399.47                   594.77                   658.15                   692.09                   698.87                   316.34                   399.34                   595.42                   659.70                   694.82                   701.78                   311.62                   393.12                   587.20                   652.22                   687.05                   693.83                   310.36                   391.19                   582.22                   645.57                   679.31                   685.88                   309.33                   389.65                   578.70                   641.28                   674.60                   681.04                   300.20                   375.54                   550.11                   605.83                   636.87                   643.14                   292.15                   357.13                   490.70                   529.01                   551.03                   555.77
18.000                   3.0000                   3.0000                   1.1000                   2000.0                   4000.0                   35.000                   382.11                   469.37                   678.47                   753.41                   793.78                   801.25                   381.24                   468.05                   675.99                   750.37                   790.59                   798.05                   382.22                   469.27                   677.58                   752.22                   792.48                   799.94                   381.23                   467.85                   675.10                   749.14                   789.21                   796.64                   380.87                   467.76                   675.71                   750.04                   790.24                   797.69                   375.96                   461.84                   668.71                   742.41                   782.54                   790.00                   374.35                   459.63                   664.93                   737.85                   777.77                   785.19                   372.45                   456.96                   659.35                   730.18                   769.21                   776.52                   360.52                   439.59                   626.46                   688.90                   723.16                   729.79                   348.49                   416.35                   559.73                   603.31                   627.95                   632.94
18.000                   3.0000                   3.0000                   1.1000                   2000.0                   4000.0                   40.000                   442.85                   532.78                   755.58                   843.38                   888.51                   896.31                   441.92                   531.50                   753.14                   840.32                   885.40                   893.22                   442.85                   532.58                   754.68                   842.18                   887.25                   895.05                   441.80                   531.22                   752.30                   839.19                   884.24                   892.05                   441.49                   531.14                   752.96                   840.16                   885.22                   893.03                   436.67                   525.66                   745.54                   831.24                   876.16                   884.01                   434.86                   523.40                   742.00                   826.74                   871.43                   879.28                   432.05                   519.53                   733.09                   814.59                   858.14                   865.89                   417.57                   499.02                   690.89                   757.75                   794.15                   800.96                   402.55                   472.53                   620.90                   666.06                   691.09                   696.00
18.000                   3.0000                   3.0000                   1.1000                   2000.0                   4000.0                   45.000                   499.52                   591.22                   837.79                   934.67                   977.98                   984.81                   498.58                   589.99                   835.00                   931.67                   975.11                   981.99                   499.44                   590.95                   836.57                   933.27                   976.61                   983.46                   498.39                   589.67                   834.15                   930.71                   974.20                   981.10                   498.12                   589.65                   835.24                   932.13                   975.60                   982.48                   493.49                   584.56                   826.69                   923.01                   966.92                   973.94                   491.59                   582.40                   823.38                   919.52                   963.53                   970.60                   487.84                   577.45                   811.33                   905.47                   949.53                   956.71                   470.72                   553.34                   750.67                   825.79                   865.36                   872.32                   453.38                   524.14                   671.33                   715.85                   740.32                   745.02
18.000                   3.0000                   3.0000                   1.1000                   2000.0                   4000.0                   50.000                   551.98                   643.47                   909.74                   998.62                   1034.5                   1039.6                   551.05                   642.30                   906.99                   995.90                   1032.0                   1037.2                   551.94                   643.68                   913.41                   1003.0                   1038.4                   1043.4                   551.02                   643.21                   924.03                   1014.0                   1048.2                   1052.9                   550.68                   642.35                   909.91                   999.24                   1035.1                   1040.2                   546.27                   637.47                   900.00                   989.68                   1026.5                   1031.9                   544.54                   636.64                   914.92                   1006.7                   1042.1                   1047.0                   539.93                   630.66                   895.59                   988.48                   1025.9                   1031.3                   519.85                   602.00                   807.87                   888.28                   926.75                   933.12                   500.24                   569.87                   709.92                   751.95                   775.61                   780.10
18.000                   3.0000                   3.0000                   1.1000                   2000.0                   4000.0                   55.000                   599.42                   687.16                   929.32                   991.89                   1017.5                   1021.1                   598.60                   686.43                   929.52                   992.32                   1017.9                   1021.5                   599.92                   690.29                   960.00                   1027.0                   1049.7                   1052.2                   599.57                   693.85                   1030.9                   1098.0                   1113.1                   1113.7                   598.61                   687.95                   941.72                   1004.9                   1029.0                   1032.1                   594.40                   682.74                   927.00                   990.14                   1015.8                   1019.4                   593.65                   687.99                   1024.1                   1094.7                   1111.0                   1111.8                   588.45                   680.43                   976.55                   1051.9                   1074.0                   1076.0                   564.92                   644.57                   853.44                   926.54                   959.76                   965.03                   543.16                   609.51                   739.95                   780.42                   803.19                   807.38
18.000                   3.0000                   3.0000                   1.1000                   2000.0                   4000.0                   60.000                   640.82                   722.16                   935.91                   981.75                   1001.0                   1003.7                   640.24                   722.25                   940.02                   986.05                   1005.0                   1007.7                   642.48                   730.69                   996.02                   1046.6                   1060.7                   1061.6                   643.19                   741.08                   1090.2                   1131.5                   1138.2                   1137.5                   640.95                   726.34                   963.87                   1010.6                   1027.2                   1029.1                   636.89                   720.29                   943.38                   989.17                   1007.4                   1009.8                   637.96                   735.57                   1085.6                   1129.1                   1136.5                   1135.9                   632.63                   726.75                   1047.2                   1098.9                   1109.7                   1109.7                   605.32                   681.33                   890.32                   956.19                   985.54                   990.04                   581.87                   643.93                   767.42                   808.22                   830.21                   834.11
18.000                   3.0000                   3.0000                   1.1000                   2000.0                   4000.0                   65.000                   674.50                   751.98                   943.50                   978.98                   994.01                   996.05                   674.25                   753.39                   951.71                   987.45                   1002.1                   1004.0                   677.60                   769.22                   1025.8                   1064.9                   1073.7                   1073.7                   679.49                   788.70                   1122.3                   1150.4                   1153.0                   1151.7                   675.81                   761.60                   985.68                   1022.6                   1034.2                   1035.2                   671.93                   753.71                   961.41                   997.10                   1010.5                   1012.1                   675.08                   782.79                   1118.9                   1148.6                   1151.6                   1150.3                   670.36                   773.80                   1092.7                   1129.9                   1135.2                   1134.2                   639.76                   712.15                   919.90                   978.73                   1004.5                   1008.3                   615.23                   673.03                   794.32                   834.79                   855.78                   859.40
18.000                   3.0000                   3.0000                   1.1000                   2000.0                   4000.0                   70.000                   700.56                   779.98                   956.45                   986.83                   999.63                   1001.3                   700.67                   783.20                   967.63                   998.38                   1010.6                   1012.0                   705.01                   808.24                   1043.8                   1073.9                   1080.1                   1079.7                   707.88                   836.22                   1122.2                   1142.9                   1144.1                   1142.6                   703.00                   796.75                   1004.9                   1035.6                   1044.4                   1044.8                   699.45                   786.35                   980.76                   1011.2                   1021.8                   1022.8                   704.44                   830.04                   1119.6                   1141.4                   1142.9                   1141.5                   701.08                   823.80                   1105.2                   1130.0                   1132.5                   1131.2                   668.50                   738.24                   945.12                   997.87                   1020.3                   1023.3                   643.46                   697.32                   821.28                   860.92                   880.99                   884.37
18.000                   3.0000                   3.0000                   1.1000                   2000.0                   4000.0                   75.000                   722.90                   809.51                   971.59                   997.47                   1008.0                   1009.2                   723.38                   814.37                   985.24                   1011.6                   1021.4                   1022.3                   729.20                   846.33                   1059.2                   1082.2                   1086.2                   1085.5                   733.57                   879.11                   1121.4                   1136.7                   1136.7                   1135.0                   726.71                   832.25                   1023.7                   1048.8                   1055.1                   1055.0                   723.12                   820.22                   1000.9                   1026.6                   1034.6                   1035.0                   730.42                   873.12                   1119.7                   1135.7                   1136.0                   1134.4                   728.31                   870.69                   1112.8                   1129.0                   1129.4                   1127.8                   693.85                   765.01                   969.95                   1016.3                   1034.5                   1036.7                   669.00                   719.17                   846.38                   884.29                   903.08                   906.14