% Model:              batchmodel_COIL_N_18_COIL_kr_1.5_COIL_kh_3_COIL_kturn_1.1_FUNZ_freq_2000_FUNZ_I_eff_4000.mph
% Version:            COMSOL 5.6.0.280
% Date:               Feb 1 2022, 17:37
% Table:              Tabella 1 - GRIGLIA_T
% COIL_N                 COIL_kr                  COIL_kh                  COIL_kturn               FUNZ_freq                FUNZ_I_eff               Time (s)                 Temperatura (degC), Punto: (0, 0)Temperatura (degC), Punto: (15, 0)Temperatura (degC), Punto: (25.641, 0)Temperatura (degC), Punto: (27.821, 0)Temperatura (degC), Punto: (29.128, 0)Temperatura (degC), Punto: (29.564, 0)Temperatura (degC), Punto: (0, 62.5)Temperatura (degC), Punto: (15, 62.5)Temperatura (degC), Punto: (25.641, 62.5)Temperatura (degC), Punto: (27.821, 62.5)Temperatura (degC), Punto: (29.128, 62.5)Temperatura (degC), Punto: (29.564, 62.5)Temperatura (degC), Punto: (0, 125)Temperatura (degC), Punto: (15, 125)Temperatura (degC), Punto: (25.641, 125)Temperatura (degC), Punto: (27.821, 125)Temperatura (degC), Punto: (29.128, 125)Temperatura (degC), Punto: (29.564, 125)Temperatura (degC), Punto: (0, 187.5)Temperatura (degC), Punto: (15, 187.5)Temperatura (degC), Punto: (25.641, 187.5)Temperatura (degC), Punto: (27.821, 187.5)Temperatura (degC), Punto: (29.128, 187.5)Temperatura (degC), Punto: (29.564, 187.5)Temperatura (degC), Punto: (0, 250)Temperatura (degC), Punto: (15, 250)Temperatura (degC), Punto: (25.641, 250)Temperatura (degC), Punto: (27.821, 250)Temperatura (degC), Punto: (29.128, 250)Temperatura (degC), Punto: (29.564, 250)Temperatura (degC), Punto: (0, 312.5)Temperatura (degC), Punto: (15, 312.5)Temperatura (degC), Punto: (25.641, 312.5)Temperatura (degC), Punto: (27.821, 312.5)Temperatura (degC), Punto: (29.128, 312.5)Temperatura (degC), Punto: (29.564, 312.5)Temperatura (degC), Punto: (0, 375)Temperatura (degC), Punto: (15, 375)Temperatura (degC), Punto: (25.641, 375)Temperatura (degC), Punto: (27.821, 375)Temperatura (degC), Punto: (29.128, 375)Temperatura (degC), Punto: (29.564, 375)Temperatura (degC), Punto: (0, 437.5)Temperatura (degC), Punto: (15, 437.5)Temperatura (degC), Punto: (25.641, 437.5)Temperatura (degC), Punto: (27.821, 437.5)Temperatura (degC), Punto: (29.128, 437.5)Temperatura (degC), Punto: (29.564, 437.5)Temperatura (degC), Punto: (0, 468.75)Temperatura (degC), Punto: (15, 468.75)Temperatura (degC), Punto: (25.641, 468.75)Temperatura (degC), Punto: (27.821, 468.75)Temperatura (degC), Punto: (29.128, 468.75)Temperatura (degC), Punto: (29.564, 468.75)Temperatura (degC), Punto: (0, 492.19)Temperatura (degC), Punto: (15, 492.19)Temperatura (degC), Punto: (25.641, 492.19)Temperatura (degC), Punto: (27.821, 492.19)Temperatura (degC), Punto: (29.128, 492.19)Temperatura (degC), Punto: (29.564, 492.19)
18.000                   1.5000                   3.0000                   1.1000                   2000.0                   4000.0                   0.0000                   20.000                   20.000                   20.000                   20.000                   20.041                   20.100                   20.000                   20.000                   20.000                   20.000                   20.041                   20.100                   20.000                   20.000                   20.000                   20.000                   20.042                   20.100                   20.000                   20.000                   20.000                   20.000                   20.042                   20.101                   20.000                   20.000                   20.000                   20.000                   20.042                   20.101                   20.000                   20.000                   20.000                   20.000                   20.042                   20.101                   20.000                   20.000                   20.000                   20.000                   20.042                   20.102                   20.000                   20.000                   20.000                   20.000                   20.043                   20.102                   20.000                   20.000                   20.000                   20.000                   20.042                   20.100                   20.000                   20.000                   20.000                   20.000                   20.040                   20.097
18.000                   1.5000                   3.0000                   1.1000                   2000.0                   4000.0                   5.0000                   25.444                   46.381                   133.99                   167.15                   188.91                   194.41                   25.390                   46.205                   134.77                   168.54                   190.69                   196.25                   25.485                   46.660                   135.25                   168.90                   191.17                   196.77                   25.472                   46.588                   135.41                   169.60                   191.78                   197.29                   25.469                   46.625                   135.46                   169.65                   191.72                   197.13                   25.552                   47.075                   137.63                   171.83                   194.05                   199.42                   25.537                   47.032                   137.13                   171.49                   193.40                   198.71                   25.603                   47.349                   138.39                   172.96                   195.22                   200.63                   25.354                   46.394                   134.86                   168.76                   191.16                   196.71                   21.998                   45.645                   131.54                   162.68                   183.17                   188.29
18.000                   1.5000                   3.0000                   1.1000                   2000.0                   4000.0                   10.000                   59.556                   111.10                   241.65                   283.96                   309.93                   315.85                   59.580                   111.63                   244.27                   286.86                   312.95                   318.86                   59.839                   111.90                   243.69                   285.92                   311.94                   317.86                   59.741                   111.69                   244.18                   287.40                   314.23                   320.17                   59.669                   111.51                   243.06                   285.66                   312.05                   318.05                   60.175                   112.73                   246.13                   288.80                   315.25                   321.26                   60.056                   112.51                   245.95                   289.07                   315.82                   321.82                   60.440                   113.29                   247.30                   289.95                   316.36                   322.36                   59.426                   111.37                   243.12                   285.26                   311.33                   317.26                   64.949                   117.58                   240.38                   278.08                   300.94                   306.23
18.000                   1.5000                   3.0000                   1.1000                   2000.0                   4000.0                   15.000                   120.93                   187.88                   340.58                   388.17                   418.53                   425.05                   121.31                   188.88                   343.64                   394.23                   425.75                   432.39                   121.54                   189.09                   344.72                   395.27                   426.49                   433.29                   121.31                   188.81                   343.88                   394.16                   424.18                   430.93                   121.13                   188.44                   342.32                   392.23                   422.67                   429.21                   121.99                   189.46                   340.20                   387.94                   418.21                   425.00                   121.86                   189.71                   345.51                   395.38                   426.62                   433.50                   122.50                   190.47                   345.46                   396.30                   426.81                   433.46                   121.13                   188.06                   341.53                   392.46                   423.25                   429.69                   125.28                   192.44                   333.30                   376.54                   404.38                   410.65
18.000                   1.5000                   3.0000                   1.1000                   2000.0                   4000.0                   20.000                   192.04                   265.72                   435.82                   491.45                   522.73                   529.25                   192.93                   267.63                   441.67                   498.21                   529.94                   536.52                   193.13                   268.01                   442.78                   499.50                   531.46                   538.02                   192.71                   267.21                   440.28                   496.52                   528.92                   535.54                   192.46                   266.71                   438.21                   493.88                   526.20                   532.92                   193.14                   266.94                   436.84                   492.26                   524.35                   530.99                   193.40                   268.23                   441.56                   497.81                   530.23                   536.91                   193.86                   268.37                   441.40                   497.68                   530.27                   536.99                   192.36                   265.84                   437.20                   492.91                   524.90                   531.51                   193.48                   266.24                   420.15                   467.67                   494.94                   500.68
18.000                   1.5000                   3.0000                   1.1000                   2000.0                   4000.0                   25.000                   261.99                   340.75                   523.10                   582.11                   612.79                   619.31                   263.31                   342.98                   527.06                   584.96                   616.34                   623.08                   263.54                   343.40                   528.20                   587.53                   619.95                   626.63                   263.00                   342.67                   528.78                   589.34                   624.73                   631.65                   262.68                   342.05                   526.11                   585.29                   619.65                   626.82                   263.01                   342.05                   526.76                   586.72                   621.32                   628.37                   263.56                   343.02                   526.12                   586.17                   620.52                   627.43                   263.77                   343.15                   527.68                   587.27                   622.25                   629.43                   261.76                   340.11                   523.62                   583.70                   617.67                   624.51                   261.13                   337.72                   499.14                   547.41                   572.39                   577.72
18.000                   1.5000                   3.0000                   1.1000                   2000.0                   4000.0                   30.000                   329.72                   413.14                   609.95                   675.89                   710.90                   717.68                   331.20                   415.15                   612.27                   677.83                   712.92                   719.75                   331.46                   415.52                   613.10                   679.24                   714.69                   721.54                   330.94                   415.15                   614.46                   681.43                   717.80                   724.74                   330.58                   414.58                   613.13                   679.74                   715.80                   722.79                   330.66                   414.52                   613.59                   680.54                   716.77                   723.75                   331.21                   414.92                   612.28                   679.04                   715.16                   722.10                   331.30                   415.17                   613.56                   680.36                   716.64                   723.65                   328.63                   411.45                   608.47                   675.06                   711.09                   718.01                   326.95                   407.65                   582.69                   638.05                   668.21                   674.19
18.000                   1.5000                   3.0000                   1.1000                   2000.0                   4000.0                   35.000                   394.18                   480.79                   685.67                   756.03                   795.53                   803.07                   395.58                   482.42                   687.43                   757.97                   797.70                   805.27                   395.85                   482.75                   688.01                   758.78                   798.68                   806.27                   395.43                   482.57                   688.86                   760.17                   800.34                   807.96                   395.06                   482.13                   688.39                   759.68                   799.85                   807.48                   395.02                   482.04                   688.59                   760.14                   800.44                   808.09                   395.43                   482.20                   687.98                   759.28                   799.46                   807.10                   395.47                   482.43                   688.77                   760.33                   800.70                   808.35                   392.25                   478.12                   682.02                   751.76                   790.63                   798.08                   391.14                   474.92                   657.77                   716.05                   747.38                   753.41
18.000                   1.5000                   3.0000                   1.1000                   2000.0                   4000.0                   40.000                   453.75                   542.43                   757.26                   842.85                   886.85                   894.50                   455.00                   543.78                   759.12                   845.20                   889.28                   896.93                   455.26                   544.11                   759.84                   846.25                   890.44                   898.10                   454.94                   544.00                   760.58                   847.41                   891.73                   899.40                   454.60                   543.67                   760.43                   847.39                   891.78                   899.47                   454.49                   543.58                   760.78                   848.06                   892.52                   900.22                   454.80                   543.69                   760.49                   847.66                   892.14                   899.85                   454.78                   543.85                   761.21                   848.68                   893.24                   900.95                   451.07                   538.78                   750.59                   833.96                   877.42                   885.02                   450.29                   535.23                   717.10                   778.04                   812.15                   818.48
18.000                   1.5000                   3.0000                   1.1000                   2000.0                   4000.0                   45.000                   509.85                   599.63                   836.76                   932.85                   975.82                   982.64                   510.94                   600.78                   838.97                   935.34                   978.26                   985.06                   511.20                   601.10                   840.00                   936.65                   979.62                   986.41                   510.97                   601.06                   840.86                   937.78                   980.81                   987.61                   510.65                   600.80                   841.00                   938.15                   981.27                   988.08                   510.52                   600.74                   841.60                   939.03                   982.18                   988.99                   510.76                   600.85                   841.67                   939.19                   982.40                   989.22                   510.68                   600.94                   842.49                   940.21                   983.44                   990.26                   506.41                   594.97                   825.32                   919.47                   962.46                   969.37                   505.44                   589.85                   772.82                   842.49                   878.35                   884.56
18.000                   1.5000                   3.0000                   1.1000                   2000.0                   4000.0                   50.000                   561.71                   650.45                   907.03                   992.86                   1027.9                   1033.0                   562.68                   651.52                   909.57                   995.43                   1030.3                   1035.2                   562.96                   651.93                   911.30                   997.33                   1032.1                   1037.0                   562.80                   652.05                   913.60                   1000.1                   1034.8                   1039.6                   562.55                   652.04                   916.48                   1003.9                   1038.4                   1043.1                   562.46                   652.23                   921.13                   1009.8                   1043.9                   1048.5                   562.67                   652.51                   923.85                   1013.1                   1046.9                   1051.4                   562.58                   652.94                   932.89                   1022.7                   1055.5                   1059.7                   557.46                   644.66                   891.57                   976.99                   1013.0                   1018.4                   555.55                   636.61                   823.26                   889.61                   921.04                   926.17
18.000                   1.5000                   3.0000                   1.1000                   2000.0                   4000.0                   55.000                   607.70                   692.62                   928.21                   989.15                   1014.3                   1017.9                   608.63                   693.77                   930.11                   990.23                   1014.9                   1018.4                   609.00                   694.57                   933.43                   993.26                   1017.5                   1020.8                   609.03                   695.39                   940.73                   1001.3                   1025.1                   1028.2                   609.01                   696.52                   954.54                   1017.7                   1040.3                   1043.0                   609.15                   698.02                   975.34                   1041.6                   1062.0                   1064.0                   609.46                   699.02                   987.04                   1053.9                   1072.9                   1074.5                   609.65                   701.72                   1023.4                   1087.6                   1102.8                   1103.5                   602.58                   685.88                   917.07                   981.22                   1008.4                   1012.4                   598.98                   674.46                   849.57                   900.96                   924.67                   928.43
18.000                   1.5000                   3.0000                   1.1000                   2000.0                   4000.0                   60.000                   648.04                   726.61                   936.45                   982.29                   1001.8                   1004.6                   649.04                   728.06                   938.90                   983.57                   1002.4                   1005.0                   649.62                   729.64                   945.34                   989.59                   1007.8                   1010.2                   649.99                   731.79                   959.33                   1004.7                   1021.9                   1024.1                   650.46                   735.09                   985.01                   1033.0                   1047.9                   1049.2                   651.07                   739.07                   1017.8                   1065.1                   1076.7                   1077.2                   651.61                   741.45                   1034.6                   1080.1                   1090.3                   1090.4                   652.49                   748.53                   1077.7                   1116.4                   1123.0                   1122.4                   642.02                   719.23                   930.63                   982.04                   1004.3                   1007.5                   636.62                   705.31                   867.16                   909.40                   928.94                   931.98
18.000                   1.5000                   3.0000                   1.1000                   2000.0                   4000.0                   65.000                   680.35                   754.71                   945.55                   983.18                   999.42                   1001.6                   681.51                   757.18                   949.96                   986.42                   1001.9                   1003.9                   682.39                   760.39                   960.16                   996.38                   1011.0                   1012.8                   683.23                   765.11                   980.22                   1017.6                   1030.7                   1032.1                   684.36                   772.40                   1012.7                   1050.5                   1060.6                   1061.1                   685.61                   780.58                   1046.4                   1080.8                   1088.1                   1087.8                   686.44                   785.38                   1063.0                   1095.2                   1101.1                   1100.5                   688.24                   799.71                   1101.9                   1127.6                   1130.6                   1129.4                   673.55                   745.49                   941.73                   986.05                   1005.5                   1008.3                   666.85                   729.03                   882.13                   919.27                   936.55                   939.19
18.000                   1.5000                   3.0000                   1.1000                   2000.0                   4000.0                   70.000                   705.85                   781.89                   957.64                   989.29                   1002.8                   1004.6                   707.18                   786.07                   964.63                   995.31                   1008.0                   1009.5                   708.32                   791.59                   978.51                   1009.4                   1021.0                   1022.2                   709.60                   799.75                   1003.2                   1034.8                   1044.5                   1045.1                   711.35                   811.84                   1037.7                   1067.3                   1074.1                   1073.9                   713.13                   824.38                   1067.3                   1093.0                   1097.3                   1096.6                   714.20                   831.62                   1082.0                   1105.5                   1108.8                   1107.8                   716.74                   852.41                   1114.9                   1132.9                   1133.7                   1132.2                   698.62                   768.96                   952.44                   991.48                   1008.7                   1011.0                   691.26                   748.98                   896.14                   929.48                   945.05                   947.38
18.000                   1.5000                   3.0000                   1.1000                   2000.0                   4000.0                   75.000                   725.92                   811.50                   973.02                   999.77                   1010.7                   1012.0                   727.62                   817.60                   982.86                   1009.0                   1018.9                   1019.9                   729.26                   825.16                   999.42                   1025.8                   1034.5                   1035.1                   731.23                   835.90                   1025.5                   1051.5                   1058.3                   1058.3                   734.08                   851.26                   1057.5                   1080.6                   1084.9                   1084.2                   736.95                   866.27                   1082.1                   1101.6                   1103.9                   1102.8                   738.69                   874.92                   1094.8                   1112.3                   1113.7                   1112.4                   743.44                   899.33                   1122.4                   1135.2                   1134.7                   1133.0                   717.59                   792.45                   962.83                   997.22                   1012.2                   1014.2                   709.94                   767.94                   908.69                   938.69                   952.73                   954.78