% Model:              batchmodel_COIL_N_18_COIL_kr_1.5_COIL_kh_2_COIL_kturn_1.1_FUNZ_freq_10000_FUNZ_I_eff_2500.mph
% Version:            COMSOL 5.6.0.280
% Date:               Feb 1 2022, 15:13
% Table:              Tabella 1 - GRIGLIA_T
% COIL_N                 COIL_kr                  COIL_kh                  COIL_kturn               FUNZ_freq                FUNZ_I_eff               Time (s)                 Temperatura (degC), Punto: (0, 0)Temperatura (degC), Punto: (15, 0)Temperatura (degC), Punto: (28.051, 0)Temperatura (degC), Punto: (29.025, 0)Temperatura (degC), Punto: (29.61, 0)Temperatura (degC), Punto: (29.805, 0)Temperatura (degC), Punto: (0, 62.5)Temperatura (degC), Punto: (15, 62.5)Temperatura (degC), Punto: (28.051, 62.5)Temperatura (degC), Punto: (29.025, 62.5)Temperatura (degC), Punto: (29.61, 62.5)Temperatura (degC), Punto: (29.805, 62.5)Temperatura (degC), Punto: (0, 125)Temperatura (degC), Punto: (15, 125)Temperatura (degC), Punto: (28.051, 125)Temperatura (degC), Punto: (29.025, 125)Temperatura (degC), Punto: (29.61, 125)Temperatura (degC), Punto: (29.805, 125)Temperatura (degC), Punto: (0, 187.5)Temperatura (degC), Punto: (15, 187.5)Temperatura (degC), Punto: (28.051, 187.5)Temperatura (degC), Punto: (29.025, 187.5)Temperatura (degC), Punto: (29.61, 187.5)Temperatura (degC), Punto: (29.805, 187.5)Temperatura (degC), Punto: (0, 250)Temperatura (degC), Punto: (15, 250)Temperatura (degC), Punto: (28.051, 250)Temperatura (degC), Punto: (29.025, 250)Temperatura (degC), Punto: (29.61, 250)Temperatura (degC), Punto: (29.805, 250)Temperatura (degC), Punto: (0, 312.5)Temperatura (degC), Punto: (15, 312.5)Temperatura (degC), Punto: (28.051, 312.5)Temperatura (degC), Punto: (29.025, 312.5)Temperatura (degC), Punto: (29.61, 312.5)Temperatura (degC), Punto: (29.805, 312.5)Temperatura (degC), Punto: (0, 375)Temperatura (degC), Punto: (15, 375)Temperatura (degC), Punto: (28.051, 375)Temperatura (degC), Punto: (29.025, 375)Temperatura (degC), Punto: (29.61, 375)Temperatura (degC), Punto: (29.805, 375)Temperatura (degC), Punto: (0, 437.5)Temperatura (degC), Punto: (15, 437.5)Temperatura (degC), Punto: (28.051, 437.5)Temperatura (degC), Punto: (29.025, 437.5)Temperatura (degC), Punto: (29.61, 437.5)Temperatura (degC), Punto: (29.805, 437.5)Temperatura (degC), Punto: (0, 468.75)Temperatura (degC), Punto: (15, 468.75)Temperatura (degC), Punto: (28.051, 468.75)Temperatura (degC), Punto: (29.025, 468.75)Temperatura (degC), Punto: (29.61, 468.75)Temperatura (degC), Punto: (29.805, 468.75)Temperatura (degC), Punto: (0, 492.19)Temperatura (degC), Punto: (15, 492.19)Temperatura (degC), Punto: (28.051, 492.19)Temperatura (degC), Punto: (29.025, 492.19)Temperatura (degC), Punto: (29.61, 492.19)Temperatura (degC), Punto: (29.805, 492.19)
18.000                   1.5000                   2.0000                   1.1000                   10000                    2500.0                   0.0000                   20.000                   20.000                   20.000                   20.000                   20.186                   20.452                   20.000                   20.000                   20.000                   20.000                   20.188                   20.457                   20.000                   20.000                   20.000                   20.000                   20.187                   20.454                   20.000                   20.000                   20.000                   20.000                   20.188                   20.455                   20.000                   20.000                   20.000                   20.000                   20.188                   20.456                   20.000                   20.000                   20.000                   20.000                   20.186                   20.453                   20.000                   20.000                   20.000                   20.000                   20.184                   20.449                   20.000                   20.000                   20.000                   20.000                   20.002                   20.022                   20.000                   20.000                   20.000                   20.000                   20.000                   20.004                   20.000                   20.000                   20.000                   20.000                   20.000                   20.001
18.000                   1.5000                   2.0000                   1.1000                   10000                    2500.0                   5.0000                   32.991                   80.900                   390.44                   443.53                   474.40                   481.00                   32.963                   81.451                   394.57                   448.29                   479.34                   485.96                   32.941                   81.256                   392.97                   446.45                   477.42                   484.02                   32.948                   81.280                   392.93                   446.38                   477.39                   484.00                   32.948                   81.286                   393.36                   446.92                   477.97                   484.59                   32.904                   81.075                   391.65                   444.97                   475.86                   482.44                   32.036                   77.734                   374.55                   425.30                   454.94                   461.34                   21.005                   24.847                   47.397                   50.146                   51.773                   52.291                   20.308                   21.799                   32.064                   33.160                   33.714                   33.877                   20.225                   21.141                   26.160                   26.580                   26.777                   26.824
18.000                   1.5000                   2.0000                   1.1000                   10000                    2500.0                   10.000                   111.87                   221.25                   700.70                   786.83                   833.90                   843.00                   111.95                   221.75                   699.18                   783.95                   830.68                   839.72                   111.97                   221.63                   698.26                   782.02                   828.19                   837.23                   111.90                   221.55                   698.54                   782.33                   828.31                   837.32                   111.94                   221.68                   697.99                   781.36                   826.93                   835.85                   111.87                   221.39                   697.09                   780.61                   826.61                   835.57                   104.82                   209.12                   666.75                   744.23                   786.65                   795.00                   29.759                   41.054                   78.673                   82.838                   84.980                   85.638                   23.396                   27.745                   44.992                   47.234                   47.924                   48.090                   22.017                   24.169                   31.003                   31.935                   32.275                   32.316
18.000                   1.5000                   2.0000                   1.1000                   10000                    2500.0                   15.000                   228.66                   364.85                   1025.2                   1108.8                   1130.9                   1133.3                   228.63                   364.64                   915.70                   986.80                   1017.0                   1022.0                   228.73                   364.68                   917.18                   990.79                   1022.1                   1027.2                   228.64                   364.84                   944.33                   1023.5                   1052.3                   1056.5                   228.73                   365.00                   979.90                   1067.3                   1093.4                   1096.5                   228.58                   364.38                   941.67                   1024.2                   1055.2                   1059.8                   213.35                   343.35                   862.50                   942.13                   978.37                   984.66                   49.238                   66.023                   104.64                   107.74                   109.56                   110.14                   29.886                   36.153                   48.974                   49.757                   50.194                   50.333                   25.417                   28.259                   33.326                   33.568                   33.694                   33.733
18.000                   1.5000                   2.0000                   1.1000                   10000                    2500.0                   20.000                   343.23                   488.02                   1131.5                   1163.2                   1170.0                   1170.2                   342.87                   483.07                   918.62                   956.46                   974.03                   977.18                   342.75                   481.68                   913.24                   955.04                   974.88                   978.43                   343.06                   485.65                   1021.7                   1064.7                   1077.6                   1079.1                   343.27                   487.17                   1079.5                   1116.8                   1125.9                   1126.6                   342.69                   484.68                   1079.7                   1120.3                   1130.2                   1131.0                   319.50                   452.87                   899.50                   952.46                   977.56                   982.01                   74.660                   91.281                   125.07                   127.83                   129.48                   130.01                   37.404                   42.323                   51.057                   51.691                   52.065                   52.188                   29.381                   31.565                   34.850                   35.036                   35.141                   35.175
18.000                   1.5000                   2.0000                   1.1000                   10000                    2500.0                   25.000                   440.78                   580.91                   1129.9                   1150.6                   1154.6                   1154.4                   440.08                   573.05                   966.62                   994.74                   1006.8                   1008.8                   439.40                   569.92                   947.19                   977.38                   991.40                   993.87                   440.36                   577.22                   1071.4                   1099.7                   1106.9                   1107.3                   440.81                   579.73                   1102.7                   1126.4                   1131.6                   1131.7                   439.86                   576.83                   1100.1                   1125.0                   1130.6                   1130.7                   409.45                   536.18                   944.40                   984.46                   1003.0                   1006.3                   100.33                   115.57                   147.20                   149.87                   151.48                   151.99                   44.401                   48.244                   55.598                   56.193                   56.551                   56.669                   33.017                   34.633                   37.230                   37.398                   37.496                   37.528
18.000                   1.5000                   2.0000                   1.1000                   10000                    2500.0                   30.000                   518.42                   648.38                   1113.0                   1129.0                   1131.9                   1131.6                   517.72                   641.21                   1034.6                   1058.0                   1064.9                   1065.5                   516.55                   637.08                   1000.0                   1023.1                   1032.1                   1033.4                   517.88                   645.00                   1090.0                   1109.8                   1114.2                   1114.2                   518.52                   647.64                   1104.0                   1121.3                   1124.7                   1124.5                   517.53                   644.80                   1095.2                   1113.5                   1117.3                   1117.2                   481.22                   600.71                   1007.0                   1041.0                   1053.0                   1054.6                   124.63                   138.82                   168.72                   171.27                   172.81                   173.30                   51.545                   54.860                   61.537                   62.099                   62.438                   62.550                   36.602                   37.921                   40.172                   40.328                   40.420                   40.449
18.000                   1.5000                   2.0000                   1.1000                   10000                    2500.0                   35.000                   583.40                   702.03                   1105.9                   1118.7                   1120.8                   1120.4                   582.87                   696.95                   1079.1                   1095.0                   1098.4                   1098.3                   581.43                   692.52                   1061.1                   1079.2                   1083.7                   1083.8                   582.82                   699.56                   1097.3                   1111.5                   1114.1                   1113.9                   583.54                   701.93                   1103.8                   1116.9                   1119.1                   1118.8                   582.71                   699.50                   1097.7                   1111.4                   1113.9                   1113.6                   542.07                   654.41                   1062.3                   1087.9                   1094.8                   1095.2                   147.70                   161.04                   189.56                   192.03                   193.53                   194.00                   59.077                   62.077                   68.336                   68.877                   69.205                   69.314                   40.396                   41.537                   43.579                   43.726                   43.813                   43.842
18.000                   1.5000                   2.0000                   1.1000                   10000                    2500.0                   40.000                   636.95                   747.03                   1109.4                   1119.4                   1120.7                   1120.2                   636.63                   743.90                   1102.2                   1113.0                   1114.6                   1114.2                   635.14                   739.44                   1094.1                   1106.1                   1108.2                   1107.8                   636.35                   745.26                   1106.7                   1117.1                   1118.6                   1118.1                   637.08                   747.30                   1109.9                   1119.8                   1121.2                   1120.7                   636.48                   745.38                   1106.2                   1116.6                   1118.0                   1117.5                   593.65                   699.78                   1097.1                   1114.9                   1118.8                   1118.7                   169.57                   182.26                   209.90                   212.35                   213.83                   214.30                   67.036                   69.848                   75.884                   76.418                   76.743                   76.851                   44.519                   45.557                   47.479                   47.623                   47.708                   47.736
18.000                   1.5000                   2.0000                   1.1000                   10000                    2500.0                   45.000                   676.59                   790.19                   1117.5                   1125.2                   1125.8                   1125.2                   676.33                   788.27                   1115.9                   1123.9                   1124.5                   1124.0                   675.00                   783.99                   1111.3                   1119.8                   1120.7                   1120.1                   675.94                   788.63                   1116.7                   1124.6                   1125.3                   1124.7                   676.59                   790.55                   1118.6                   1126.3                   1126.9                   1126.3                   676.20                   789.01                   1116.2                   1124.1                   1124.7                   1124.1                   634.24                   738.17                   1113.9                   1127.2                   1129.5                   1129.1                   189.80                   202.07                   229.26                   231.70                   233.18                   233.65                   75.556                   78.271                   84.207                   84.740                   85.065                   85.173                   49.279                   50.265                   52.127                   52.269                   52.353                   52.381
18.000                   1.5000                   2.0000                   1.1000                   10000                    2500.0                   50.000                   709.41                   833.60                   1126.6                   1132.4                   1132.4                   1131.7                   709.10                   832.77                   1126.9                   1132.8                   1132.8                   1132.1                   708.01                   828.82                   1123.7                   1129.9                   1130.0                   1129.4                   708.68                   832.20                   1126.6                   1132.5                   1132.5                   1131.8                   709.22                   834.00                   1127.8                   1133.6                   1133.6                   1132.9                   708.99                   832.91                   1126.2                   1132.1                   1132.1                   1131.4                   669.54                   773.98                   1124.6                   1134.7                   1135.9                   1135.4                   209.21                   221.17                   248.06                   250.51                   251.99                   252.46                   84.354                   87.008                   92.888                   93.421                   93.746                   93.854                   54.391                   55.345                   57.169                   57.310                   57.393                   57.420
18.000                   1.5000                   2.0000                   1.1000                   10000                    2500.0                   55.000                   737.24                   875.76                   1136.3                   1140.7                   1140.2                   1139.4                   736.97                   875.58                   1137.3                   1141.7                   1141.2                   1140.4                   735.79                   872.22                   1134.8                   1139.4                   1139.0                   1138.2                   736.34                   874.51                   1136.5                   1141.0                   1140.5                   1139.8                   736.96                   876.08                   1137.4                   1141.8                   1141.4                   1140.6                   736.86                   875.43                   1136.2                   1140.7                   1140.2                   1139.4                   697.11                   810.12                   1132.5                   1140.4                   1141.0                   1140.3                   227.39                   239.13                   265.83                   268.28                   269.77                   270.23                   93.487                   96.107                   101.96                   102.50                   102.82                   102.93                   60.117                   61.052                   62.853                   62.992                   63.074                   63.101
18.000                   1.5000                   2.0000                   1.1000                   10000                    2500.0                   60.000                   764.65                   917.47                   1146.1                   1149.3                   1148.4                   1147.5                   764.45                   917.82                   1147.5                   1150.6                   1149.7                   1148.9                   763.11                   915.11                   1145.5                   1148.7                   1147.9                   1147.0                   763.57                   916.37                   1146.5                   1149.7                   1148.8                   1148.0                   764.31                   917.67                   1147.2                   1150.4                   1149.5                   1148.6                   764.35                   917.47                   1146.3                   1149.5                   1148.6                   1147.7                   722.67                   846.25                   1139.6                   1145.7                   1145.7                   1144.9                   245.20                   256.76                   283.30                   285.74                   287.24                   287.70                   102.71                   105.31                   111.14                   111.68                   112.01                   112.11                   66.022                   66.943                   68.724                   68.862                   68.944                   68.971
18.000                   1.5000                   2.0000                   1.1000                   10000                    2500.0                   65.000                   810.24                   956.05                   1157.2                   1159.4                   1158.2                   1157.3                   810.34                   956.52                   1158.5                   1160.8                   1159.6                   1158.7                   808.69                   954.32                   1156.8                   1159.1                   1157.9                   1157.0                   809.01                   955.05                   1157.5                   1159.8                   1158.6                   1157.7                   809.93                   956.14                   1158.1                   1160.4                   1159.2                   1158.3                   810.26                   956.18                   1157.4                   1159.7                   1158.4                   1157.5                   746.27                   880.46                   1146.2                   1151.0                   1150.6                   1149.9                   261.75                   273.18                   299.57                   302.02                   303.51                   303.98                   112.20                   114.78                   120.62                   121.16                   121.49                   121.60                   72.574                   73.487                   75.254                   75.390                   75.471                   75.497
18.000                   1.5000                   2.0000                   1.1000                   10000                    2500.0                   70.000                   857.56                   993.46                   1168.8                   1170.2                   1168.7                   1167.7                   857.87                   993.99                   1170.2                   1171.6                   1170.1                   1169.1                   856.06                   992.24                   1168.6                   1170.1                   1168.6                   1167.6                   856.25                   992.54                   1169.1                   1170.6                   1169.1                   1168.1                   857.26                   993.43                   1169.7                   1171.2                   1169.7                   1168.7                   857.82                   993.66                   1169.0                   1170.5                   1169.0                   1168.0                   772.85                   913.77                   1152.9                   1156.7                   1155.9                   1155.1                   277.96                   289.25                   315.51                   317.96                   319.45                   319.92                   121.73                   124.31                   130.16                   130.69                   131.02                   131.13                   79.294                   80.200                   81.951                   82.086                   82.166                   82.192
18.000                   1.5000                   2.0000                   1.1000                   10000                    2500.0                   75.000                   909.26                   1027.9                   1181.9                   1182.7                   1180.9                   1179.9                   909.57                   1028.4                   1183.2                   1184.1                   1182.3                   1181.3                   907.96                   1026.9                   1181.8                   1182.6                   1180.9                   1179.8                   907.98                   1027.0                   1182.2                   1183.0                   1181.3                   1180.2                   908.90                   1027.8                   1182.7                   1183.6                   1181.8                   1180.8                   909.53                   1028.1                   1182.1                   1182.9                   1181.2                   1180.1                   806.94                   944.79                   1160.1                   1163.0                   1162.0                   1161.1                   293.28                   304.47                   330.61                   333.05                   334.55                   335.01                   131.39                   133.96                   139.82                   140.36                   140.69                   140.79                   86.436                   87.336                   89.074                   89.207                   89.286                   89.312