% Model:              batchmodel_COIL_N_18_COIL_kr_2.25_COIL_kh_2_COIL_kturn_1.7_FUNZ_freq_10000_FUNZ_I_eff_4000.mph
% Version:            COMSOL 5.6.0.280
% Date:               Feb 2 2022, 00:15
% Table:              Tabella 1 - GRIGLIA_T
% COIL_N                 COIL_kr                  COIL_kh                  COIL_kturn               FUNZ_freq                FUNZ_I_eff               Time (s)                 Temperatura (degC), Punto: (0, 0)Temperatura (degC), Punto: (15, 0)Temperatura (degC), Punto: (28.051, 0)Temperatura (degC), Punto: (29.025, 0)Temperatura (degC), Punto: (29.61, 0)Temperatura (degC), Punto: (29.805, 0)Temperatura (degC), Punto: (0, 62.5)Temperatura (degC), Punto: (15, 62.5)Temperatura (degC), Punto: (28.051, 62.5)Temperatura (degC), Punto: (29.025, 62.5)Temperatura (degC), Punto: (29.61, 62.5)Temperatura (degC), Punto: (29.805, 62.5)Temperatura (degC), Punto: (0, 125)Temperatura (degC), Punto: (15, 125)Temperatura (degC), Punto: (28.051, 125)Temperatura (degC), Punto: (29.025, 125)Temperatura (degC), Punto: (29.61, 125)Temperatura (degC), Punto: (29.805, 125)Temperatura (degC), Punto: (0, 187.5)Temperatura (degC), Punto: (15, 187.5)Temperatura (degC), Punto: (28.051, 187.5)Temperatura (degC), Punto: (29.025, 187.5)Temperatura (degC), Punto: (29.61, 187.5)Temperatura (degC), Punto: (29.805, 187.5)Temperatura (degC), Punto: (0, 250)Temperatura (degC), Punto: (15, 250)Temperatura (degC), Punto: (28.051, 250)Temperatura (degC), Punto: (29.025, 250)Temperatura (degC), Punto: (29.61, 250)Temperatura (degC), Punto: (29.805, 250)Temperatura (degC), Punto: (0, 312.5)Temperatura (degC), Punto: (15, 312.5)Temperatura (degC), Punto: (28.051, 312.5)Temperatura (degC), Punto: (29.025, 312.5)Temperatura (degC), Punto: (29.61, 312.5)Temperatura (degC), Punto: (29.805, 312.5)Temperatura (degC), Punto: (0, 375)Temperatura (degC), Punto: (15, 375)Temperatura (degC), Punto: (28.051, 375)Temperatura (degC), Punto: (29.025, 375)Temperatura (degC), Punto: (29.61, 375)Temperatura (degC), Punto: (29.805, 375)Temperatura (degC), Punto: (0, 437.5)Temperatura (degC), Punto: (15, 437.5)Temperatura (degC), Punto: (28.051, 437.5)Temperatura (degC), Punto: (29.025, 437.5)Temperatura (degC), Punto: (29.61, 437.5)Temperatura (degC), Punto: (29.805, 437.5)Temperatura (degC), Punto: (0, 468.75)Temperatura (degC), Punto: (15, 468.75)Temperatura (degC), Punto: (28.051, 468.75)Temperatura (degC), Punto: (29.025, 468.75)Temperatura (degC), Punto: (29.61, 468.75)Temperatura (degC), Punto: (29.805, 468.75)Temperatura (degC), Punto: (0, 492.19)Temperatura (degC), Punto: (15, 492.19)Temperatura (degC), Punto: (28.051, 492.19)Temperatura (degC), Punto: (29.025, 492.19)Temperatura (degC), Punto: (29.61, 492.19)Temperatura (degC), Punto: (29.805, 492.19)
18.000                   2.2500                   2.0000                   1.7000                   10000                    4000.0                   0.0000                   20.000                   20.000                   20.000                   20.000                   20.202                   20.481                   20.000                   20.000                   20.000                   20.000                   20.203                   20.483                   20.000                   20.000                   20.000                   20.000                   20.206                   20.488                   20.000                   20.000                   20.000                   20.000                   20.210                   20.495                   20.000                   20.000                   20.000                   20.000                   20.214                   20.502                   20.000                   20.000                   20.000                   20.000                   20.217                   20.507                   20.000                   20.000                   20.000                   20.000                   20.218                   20.509                   20.000                   20.000                   20.000                   20.000                   20.219                   20.509                   20.000                   20.000                   20.000                   20.000                   20.211                   20.496                   20.000                   20.000                   20.000                   20.001                   20.254                   20.570
18.000                   2.2500                   2.0000                   1.7000                   10000                    4000.0                   5.0000                   33.363                   85.791                   418.09                   474.47                   507.79                   514.94                   33.298                   86.024                   417.84                   473.49                   506.02                   513.12                   33.477                   86.989                   421.48                   477.19                   509.84                   516.91                   33.454                   86.983                   425.23                   482.18                   514.58                   521.52                   33.637                   88.118                   438.17                   497.18                   530.51                   537.77                   33.588                   87.920                   438.80                   498.62                   533.06                   540.48                   33.644                   88.024                   435.10                   494.11                   527.76                   535.01                   33.709                   88.303                   435.97                   495.37                   530.12                   537.58                   33.961                   88.752                   439.00                   500.40                   535.08                   542.28                   42.096                   111.67                   474.89                   534.61                   569.17                   576.38
18.000                   2.2500                   2.0000                   1.7000                   10000                    4000.0                   10.000                   118.40                   233.94                   749.74                   851.47                   902.89                   912.23                   118.02                   233.20                   747.73                   849.32                   900.80                   910.19                   118.69                   234.74                   757.16                   861.13                   912.91                   922.26                   118.77                   235.22                   761.52                   866.73                   918.96                   928.37                   120.01                   238.20                   776.42                   884.37                   936.19                   945.45                   119.64                   237.42                   775.99                   885.08                   937.69                   947.05                   119.82                   237.94                   780.95                   891.00                   943.65                   952.99                   120.17                   238.35                   778.99                   888.32                   941.06                   950.44                   122.29                   239.98                   768.65                   874.18                   925.94                   935.21                   148.69                   276.94                   786.52                   884.09                   931.64                   940.11
18.000                   2.2500                   2.0000                   1.7000                   10000                    4000.0                   15.000                   239.97                   381.64                   920.40                   976.80                   1000.7                   1004.9                   239.21                   381.06                   1071.1                   1141.3                   1158.3                   1159.9                   240.11                   382.75                   1068.8                   1137.3                   1153.9                   1155.5                   240.31                   382.89                   901.06                   956.32                   980.94                   985.24                   242.26                   387.70                   1003.1                   1065.5                   1083.7                   1085.8                   241.73                   388.15                   1087.6                   1138.6                   1151.0                   1152.0                   242.25                   389.84                   1123.6                   1168.4                   1178.6                   1179.3                   242.74                   388.40                   969.08                   1027.2                   1047.2                   1050.0                   246.18                   388.56                   1049.5                   1123.4                   1141.7                   1143.5                   274.72                   427.67                   1142.1                   1182.3                   1191.4                   1191.9
18.000                   2.2500                   2.0000                   1.7000                   10000                    4000.0                   20.000                   355.73                   500.17                   1020.5                   1059.0                   1070.1                   1071.3                   355.11                   502.32                   1129.0                   1157.6                   1163.7                   1163.8                   355.97                   501.71                   1118.4                   1149.5                   1156.4                   1156.7                   356.18                   498.72                   947.81                   984.72                   1000.4                   1003.0                   358.93                   507.63                   1090.0                   1122.6                   1130.4                   1130.8                   358.88                   510.01                   1108.6                   1137.1                   1143.5                   1143.7                   359.79                   512.93                   1138.0                   1162.5                   1167.5                   1167.4                   359.66                   506.59                   1018.8                   1057.1                   1069.1                   1070.5                   362.57                   506.72                   1117.0                   1148.6                   1155.5                   1155.8                   391.07                   555.55                   1202.1                   1220.3                   1223.3                   1222.9
18.000                   2.2500                   2.0000                   1.7000                   10000                    4000.0                   25.000                   451.55                   590.02                   1085.8                   1108.2                   1113.0                   1113.0                   451.10                   592.43                   1127.4                   1146.6                   1150.3                   1150.0                   451.69                   589.97                   1106.5                   1128.3                   1132.8                   1132.8                   451.74                   585.83                   1009.8                   1038.9                   1048.7                   1049.9                   454.85                   596.16                   1114.6                   1135.1                   1139.3                   1139.2                   455.19                   598.07                   1111.3                   1131.1                   1135.2                   1135.0                   456.23                   601.04                   1130.0                   1147.5                   1150.7                   1150.4                   455.55                   593.51                   1066.9                   1093.3                   1100.0                   1100.4                   458.34                   594.80                   1105.6                   1127.4                   1131.9                   1131.9                   489.78                   654.94                   1220.4                   1231.5                   1232.5                   1231.8
18.000                   2.2500                   2.0000                   1.7000                   10000                    4000.0                   30.000                   530.95                   659.66                   1098.3                   1113.7                   1116.6                   1116.4                   530.51                   661.31                   1115.6                   1130.0                   1132.5                   1132.2                   530.90                   658.16                   1096.9                   1113.3                   1116.6                   1116.4                   530.83                   654.61                   1066.6                   1086.8                   1091.6                   1091.8                   533.98                   664.55                   1115.3                   1130.0                   1132.5                   1132.2                   534.49                   665.72                   1108.5                   1123.1                   1125.7                   1125.4                   535.46                   668.23                   1117.2                   1130.9                   1133.1                   1132.7                   534.59                   661.46                   1090.6                   1107.9                   1111.5                   1111.4                   537.96                   663.27                   1095.6                   1111.9                   1115.1                   1114.9                   573.59                   736.57                   1235.6                   1243.0                   1242.9                   1242.0
18.000                   2.2500                   2.0000                   1.7000                   10000                    4000.0                   35.000                   596.71                   714.22                   1105.1                   1116.9                   1118.7                   1118.3                   596.20                   715.17                   1110.4                   1121.8                   1123.5                   1123.1                   596.51                   712.49                   1102.5                   1114.9                   1117.0                   1116.6                   596.42                   710.24                   1097.2                   1110.5                   1112.8                   1112.5                   599.28                   718.39                   1115.0                   1126.1                   1127.7                   1127.2                   599.84                   719.37                   1113.5                   1124.6                   1126.2                   1125.7                   600.64                   721.10                   1116.8                   1127.6                   1129.0                   1128.5                   599.85                   716.03                   1107.2                   1119.2                   1121.1                   1120.7                   604.04                   718.39                   1102.6                   1114.6                   1116.5                   1116.1                   642.73                   815.67                   1257.2                   1262.5                   1261.8                   1260.8
18.000                   2.2500                   2.0000                   1.7000                   10000                    4000.0                   40.000                   647.19                   758.07                   1114.0                   1123.1                   1124.1                   1123.5                   646.63                   758.51                   1116.0                   1124.9                   1125.9                   1125.3                   647.02                   756.74                   1113.5                   1122.8                   1123.9                   1123.3                   646.96                   755.48                   1113.1                   1122.5                   1123.6                   1123.1                   649.34                   762.46                   1121.9                   1130.4                   1131.2                   1130.7                   649.89                   763.72                   1122.8                   1131.3                   1132.0                   1131.5                   650.51                   765.12                   1124.5                   1132.9                   1133.6                   1133.0                   649.93                   761.19                   1120.2                   1129.0                   1129.9                   1129.4                   654.97                   765.16                   1116.0                   1124.6                   1125.5                   1124.9                   695.07                   896.64                   1282.8                   1286.9                   1285.7                   1284.6
18.000                   2.2500                   2.0000                   1.7000                   10000                    4000.0                   45.000                   687.52                   802.81                   1123.8                   1130.6                   1130.9                   1130.3                   686.95                   802.48                   1124.5                   1131.4                   1131.7                   1131.0                   687.38                   801.95                   1124.6                   1131.5                   1131.8                   1131.2                   687.37                   801.56                   1125.9                   1132.8                   1133.1                   1132.5                   689.25                   807.69                   1131.0                   1137.6                   1137.8                   1137.1                   689.75                   809.26                   1132.8                   1139.3                   1139.4                   1138.7                   690.20                   810.50                   1133.9                   1140.3                   1140.4                   1139.7                   689.83                   807.68                   1132.0                   1138.5                   1138.7                   1138.0                   695.30                   815.60                   1130.1                   1136.3                   1136.4                   1135.7                   736.35                   971.08                   1309.4                   1312.5                   1310.9                   1309.7
18.000                   2.2500                   2.0000                   1.7000                   10000                    4000.0                   50.000                   718.98                   847.84                   1134.0                   1139.1                   1138.9                   1138.1                   718.31                   847.03                   1134.3                   1139.5                   1139.2                   1138.5                   718.78                   847.70                   1135.7                   1140.8                   1140.5                   1139.8                   718.82                   848.05                   1137.6                   1142.7                   1142.4                   1141.7                   720.36                   853.16                   1141.2                   1146.2                   1145.8                   1145.0                   720.84                   854.97                   1143.2                   1148.1                   1147.7                   1146.9                   721.19                   856.04                   1144.2                   1149.0                   1148.6                   1147.8                   720.98                   854.38                   1143.4                   1148.2                   1147.9                   1147.1                   727.59                   868.12                   1145.1                   1149.4                   1148.8                   1148.0                   792.82                   1038.7                   1335.5                   1337.7                   1335.8                   1334.5
18.000                   2.2500                   2.0000                   1.7000                   10000                    4000.0                   55.000                   746.31                   892.12                   1144.8                   1148.6                   1147.9                   1147.0                   745.48                   891.13                   1145.0                   1148.8                   1148.1                   1147.3                   746.19                   892.73                   1147.0                   1150.7                   1150.0                   1149.2                   746.32                   893.63                   1149.2                   1153.0                   1152.2                   1151.4                   747.91                   897.73                   1152.2                   1155.9                   1155.1                   1154.3                   748.53                   899.67                   1154.3                   1158.0                   1157.2                   1156.3                   748.90                   900.59                   1155.2                   1158.8                   1158.0                   1157.1                   748.87                   900.02                   1155.0                   1158.6                   1157.8                   1156.9                   761.46                   920.96                   1161.6                   1164.4                   1163.4                   1162.4                   867.43                   1099.5                   1360.0                   1361.4                   1359.1                   1357.7
18.000                   2.2500                   2.0000                   1.7000                   10000                    4000.0                   60.000                   779.95                   934.32                   1156.7                   1159.4                   1158.3                   1157.4                   778.99                   933.35                   1156.9                   1159.6                   1158.6                   1157.6                   780.16                   935.49                   1159.1                   1161.8                   1160.7                   1159.8                   780.43                   936.69                   1161.5                   1164.2                   1163.1                   1162.2                   782.35                   940.04                   1164.4                   1167.1                   1166.0                   1165.1                   783.27                   942.01                   1166.6                   1169.3                   1168.1                   1167.2                   783.71                   942.80                   1167.5                   1170.1                   1169.0                   1168.1                   784.16                   943.21                   1167.7                   1170.4                   1169.2                   1168.3                   807.68                   971.80                   1180.2                   1182.1                   1180.6                   1179.6                   948.70                   1152.3                   1381.8                   1382.4                   1379.8                   1378.3
18.000                   2.2500                   2.0000                   1.7000                   10000                    4000.0                   65.000                   830.58                   973.60                   1169.9                   1171.8                   1170.5                   1169.5                   829.60                   972.73                   1170.1                   1172.1                   1170.7                   1169.8                   831.24                   974.97                   1172.5                   1174.5                   1173.1                   1172.1                   831.72                   976.26                   1175.1                   1177.0                   1175.7                   1174.7                   833.86                   979.23                   1178.1                   1180.1                   1178.7                   1177.7                   835.07                   981.14                   1180.4                   1182.4                   1181.0                   1180.0                   835.56                   981.86                   1181.3                   1183.3                   1181.9                   1180.9                   837.07                   983.16                   1182.1                   1184.0                   1182.6                   1181.6                   872.23                   1018.7                   1201.5                   1202.6                   1200.9                   1199.8                   1019.4                   1196.0                   1400.5                   1400.5                   1397.6                   1396.0
18.000                   2.2500                   2.0000                   1.7000                   10000                    4000.0                   70.000                   881.21                   1012.9                   1183.1                   1184.3                   1182.6                   1181.6                   880.21                   1012.1                   1183.4                   1184.6                   1182.9                   1181.9                   882.33                   1014.5                   1186.0                   1187.2                   1185.5                   1184.5                   883.01                   1015.8                   1188.6                   1189.9                   1188.2                   1187.2                   885.37                   1018.4                   1191.8                   1193.0                   1191.4                   1190.3                   886.88                   1020.3                   1194.2                   1195.5                   1193.8                   1192.7                   887.41                   1020.9                   1195.1                   1196.4                   1194.8                   1193.7                   889.98                   1023.1                   1196.5                   1197.7                   1196.0                   1195.0                   936.77                   1065.7                   1222.8                   1223.2                   1221.2                   1220.0                   1090.2                   1239.8                   1419.1                   1418.6                   1415.4                   1413.8
18.000                   2.2500                   2.0000                   1.7000                   10000                    4000.0                   75.000                   931.29                   1047.7                   1199.0                   1199.7                   1197.8                   1196.7                   930.35                   1047.0                   1199.3                   1200.0                   1198.1                   1197.0                   932.52                   1049.3                   1202.0                   1202.7                   1200.8                   1199.7                   933.27                   1050.8                   1204.8                   1205.5                   1203.6                   1202.5                   935.51                   1053.1                   1208.0                   1208.8                   1206.9                   1205.8                   937.03                   1054.9                   1210.5                   1211.3                   1209.4                   1208.3                   937.54                   1055.6                   1211.6                   1212.3                   1210.5                   1209.3                   941.19                   1058.7                   1213.7                   1214.4                   1212.5                   1211.4                   995.13                   1107.0                   1245.9                   1245.7                   1243.4                   1242.2                   1145.4                   1275.6                   1438.9                   1438.0                   1434.7                   1433.1