% Model:              batchmodel_COIL_N_18_COIL_kr_3_COIL_kh_2_COIL_kturn_1.1_FUNZ_freq_2000_FUNZ_I_eff_4000.mph
% Version:            COMSOL 5.6.0.280
% Date:               Feb 2 2022, 04:53
% Table:              Tabella 1 - GRIGLIA_T
% COIL_N                 COIL_kr                  COIL_kh                  COIL_kturn               FUNZ_freq                FUNZ_I_eff               Time (s)                 Temperatura (degC), Punto: (0, 0)Temperatura (degC), Punto: (15, 0)Temperatura (degC), Punto: (25.641, 0)Temperatura (degC), Punto: (27.821, 0)Temperatura (degC), Punto: (29.128, 0)Temperatura (degC), Punto: (29.564, 0)Temperatura (degC), Punto: (0, 62.5)Temperatura (degC), Punto: (15, 62.5)Temperatura (degC), Punto: (25.641, 62.5)Temperatura (degC), Punto: (27.821, 62.5)Temperatura (degC), Punto: (29.128, 62.5)Temperatura (degC), Punto: (29.564, 62.5)Temperatura (degC), Punto: (0, 125)Temperatura (degC), Punto: (15, 125)Temperatura (degC), Punto: (25.641, 125)Temperatura (degC), Punto: (27.821, 125)Temperatura (degC), Punto: (29.128, 125)Temperatura (degC), Punto: (29.564, 125)Temperatura (degC), Punto: (0, 187.5)Temperatura (degC), Punto: (15, 187.5)Temperatura (degC), Punto: (25.641, 187.5)Temperatura (degC), Punto: (27.821, 187.5)Temperatura (degC), Punto: (29.128, 187.5)Temperatura (degC), Punto: (29.564, 187.5)Temperatura (degC), Punto: (0, 250)Temperatura (degC), Punto: (15, 250)Temperatura (degC), Punto: (25.641, 250)Temperatura (degC), Punto: (27.821, 250)Temperatura (degC), Punto: (29.128, 250)Temperatura (degC), Punto: (29.564, 250)Temperatura (degC), Punto: (0, 312.5)Temperatura (degC), Punto: (15, 312.5)Temperatura (degC), Punto: (25.641, 312.5)Temperatura (degC), Punto: (27.821, 312.5)Temperatura (degC), Punto: (29.128, 312.5)Temperatura (degC), Punto: (29.564, 312.5)Temperatura (degC), Punto: (0, 375)Temperatura (degC), Punto: (15, 375)Temperatura (degC), Punto: (25.641, 375)Temperatura (degC), Punto: (27.821, 375)Temperatura (degC), Punto: (29.128, 375)Temperatura (degC), Punto: (29.564, 375)Temperatura (degC), Punto: (0, 437.5)Temperatura (degC), Punto: (15, 437.5)Temperatura (degC), Punto: (25.641, 437.5)Temperatura (degC), Punto: (27.821, 437.5)Temperatura (degC), Punto: (29.128, 437.5)Temperatura (degC), Punto: (29.564, 437.5)Temperatura (degC), Punto: (0, 468.75)Temperatura (degC), Punto: (15, 468.75)Temperatura (degC), Punto: (25.641, 468.75)Temperatura (degC), Punto: (27.821, 468.75)Temperatura (degC), Punto: (29.128, 468.75)Temperatura (degC), Punto: (29.564, 468.75)Temperatura (degC), Punto: (0, 492.19)Temperatura (degC), Punto: (15, 492.19)Temperatura (degC), Punto: (25.641, 492.19)Temperatura (degC), Punto: (27.821, 492.19)Temperatura (degC), Punto: (29.128, 492.19)Temperatura (degC), Punto: (29.564, 492.19)
18.000                   3.0000                   2.0000                   1.1000                   2000.0                   4000.0                   0.0000                   20.000                   20.000                   20.000                   20.000                   20.076                   20.155                   20.000                   20.000                   20.000                   20.000                   20.076                   20.155                   20.000                   20.000                   20.000                   20.000                   20.076                   20.155                   20.000                   20.000                   20.000                   20.000                   20.076                   20.155                   20.000                   20.000                   20.000                   20.000                   20.076                   20.155                   20.000                   20.000                   20.000                   20.000                   20.075                   20.153                   20.000                   20.000                   20.000                   20.000                   20.059                   20.128                   20.000                   20.000                   20.000                   20.000                   20.012                   20.044                   20.000                   20.000                   20.000                   20.000                   20.002                   20.019                   20.000                   20.000                   20.000                   20.000                   20.000                   20.006
18.000                   3.0000                   2.0000                   1.1000                   2000.0                   4000.0                   5.0000                   30.298                   68.099                   223.89                   286.90                   325.70                   334.12                   30.324                   68.399                   226.48                   290.23                   329.60                   338.06                   30.317                   68.264                   225.08                   288.16                   327.15                   335.62                   30.371                   68.631                   227.30                   290.58                   329.92                   338.41                   30.295                   68.138                   224.96                   288.26                   327.15                   335.62                   30.086                   67.215                   221.28                   284.18                   323.34                   331.82                   28.068                   57.750                   177.47                   224.15                   254.18                   261.20                   22.855                   33.323                   75.873                   91.268                   101.46                   104.42                   21.339                   26.329                   46.888                   54.463                   58.877                   60.223                   21.187                   24.282                   34.001                   37.607                   39.710                   40.332
18.000                   3.0000                   2.0000                   1.1000                   2000.0                   4000.0                   10.000                   94.585                   182.01                   432.25                   524.87                   574.66                   584.24                   94.780                   182.89                   437.02                   530.15                   581.23                   591.04                   94.857                   182.89                   436.33                   529.44                   580.55                   590.50                   95.233                   183.87                   438.96                   532.22                   584.21                   594.29                   94.193                   181.03                   429.61                   520.75                   571.62                   581.59                   92.787                   178.16                   422.29                   513.33                   563.39                   573.21                   78.607                   147.11                   334.26                   399.74                   438.76                   447.01                   42.456                   68.579                   134.99                   153.87                   165.16                   168.25                   31.091                   43.951                   76.062                   85.075                   90.011                   91.355                   29.683                   38.849                   57.009                   61.913                   64.528                   65.288
18.000                   3.0000                   2.0000                   1.1000                   2000.0                   4000.0                   15.000                   194.00                   308.32                   616.86                   728.36                   787.80                   799.22                   194.22                   308.97                   619.22                   731.37                   791.21                   802.63                   194.66                   309.66                   620.85                   732.62                   792.39                   803.77                   195.27                   310.67                   621.65                   734.01                   793.65                   804.97                   192.98                   306.69                   614.13                   725.49                   783.60                   794.81                   189.86                   301.74                   602.74                   710.84                   766.40                   777.12                   159.06                   250.15                   486.70                   570.95                   616.88                   625.79                   77.021                   112.23                   190.16                   212.84                   227.31                   231.04                   48.915                   66.007                   101.71                   111.67                   117.79                   119.62                   42.663                   53.750                   72.361                   76.626                   78.938                   79.592
18.000                   3.0000                   2.0000                   1.1000                   2000.0                   4000.0                   20.000                   298.96                   426.80                   777.61                   931.93                   998.82                   1009.3                   299.12                   427.49                   785.84                   943.09                   1009.4                   1019.6                   299.83                   428.19                   782.27                   937.77                   1004.4                   1014.7                   300.46                   429.08                   787.35                   944.76                   1010.9                   1021.1                   297.50                   424.75                   773.81                   927.57                   994.68                   1005.3                   292.66                   417.56                   755.26                   903.50                   971.51                   982.46                   248.23                   352.66                   616.20                   706.86                   753.90                   762.82                   119.50                   160.43                   247.77                   273.21                   289.07                   292.93                   71.552                   91.163                   129.88                   140.18                   146.61                   148.45                   58.448                   70.331                   89.388                   93.569                   96.024                   96.784
18.000                   3.0000                   2.0000                   1.1000                   2000.0                   4000.0                   25.000                   396.76                   528.01                   869.20                   976.24                   1017.7                   1023.7                   397.60                   535.07                   997.79                   1114.9                   1143.0                   1145.2                   397.80                   531.10                   914.71                   1035.4                   1073.7                   1078.1                   398.61                   535.42                   1004.8                   1122.6                   1150.4                   1152.5                   395.12                   526.52                   880.78                   995.40                   1038.1                   1044.0                   389.20                   521.73                   951.07                   1083.4                   1119.2                   1122.7                   334.25                   442.95                   702.02                   793.94                   843.48                   852.35                   164.87                   208.16                   297.00                   322.20                   337.70                   341.39                   96.141                   115.83                   152.98                   162.74                   168.88                   170.64                   73.972                   84.581                   101.36                   105.12                   107.36                   108.06
18.000                   3.0000                   2.0000                   1.1000                   2000.0                   4000.0                   30.000                   482.03                   608.93                   912.23                   982.92                   1009.5                   1013.2                   485.16                   629.23                   1110.0                   1173.2                   1184.7                   1184.4                   483.55                   616.31                   999.33                   1080.6                   1100.1                   1101.3                   485.29                   627.96                   1113.6                   1176.7                   1188.0                   1187.7                   480.18                   608.33                   939.79                   1021.1                   1047.8                   1050.9                   475.65                   614.39                   1076.6                   1150.3                   1164.3                   1164.4                   410.77                   517.71                   771.63                   868.01                   914.52                   922.33                   209.24                   253.02                   342.10                   367.39                   382.84                   386.46                   120.62                   139.94                   176.46                   186.17                   192.32                   194.07                   89.636                   99.350                   115.04                   118.67                   120.87                   121.56
18.000                   3.0000                   2.0000                   1.1000                   2000.0                   4000.0                   35.000                   555.67                   674.23                   958.97                   1012.4                   1029.9                   1031.8                   561.82                   707.68                   1142.3                   1179.0                   1183.9                   1182.8                   557.84                   685.79                   1047.2                   1098.2                   1108.6                   1108.6                   560.80                   703.78                   1137.0                   1174.5                   1179.5                   1178.4                   553.27                   673.85                   986.35                   1045.9                   1062.5                   1063.8                   552.10                   690.50                   1100.9                   1143.3                   1149.9                   1149.1                   476.65                   579.23                   827.47                   915.63                   955.27                   961.63                   251.21                   295.01                   384.38                   409.84                   425.29                   428.84                   144.77                   163.91                   200.45                   210.29                   216.53                   218.29                   105.71                   114.97                   130.29                   133.90                   136.11                   136.80
18.000                   3.0000                   2.0000                   1.1000                   2000.0                   4000.0                   40.000                   619.21                   729.66                   1019.0                   1060.2                   1069.7                   1069.8                   627.82                   777.00                   1153.7                   1176.7                   1178.1                   1176.5                   621.81                   744.56                   1080.4                   1113.2                   1118.3                   1117.4                   625.69                   768.79                   1143.5                   1167.4                   1169.1                   1167.5                   616.11                   728.49                   1029.0                   1071.7                   1081.5                   1081.7                   618.51                   753.50                   1110.0                   1137.0                   1139.8                   1138.5                   534.87                   631.39                   872.91                   950.47                   984.29                   989.51                   290.93                   334.73                   424.68                   450.39                   465.87                   469.37                   168.73                   187.85                   224.78                   234.85                   241.24                   243.02                   122.29                   131.37                   146.64                   150.29                   152.53                   153.23
18.000                   3.0000                   2.0000                   1.1000                   2000.0                   4000.0                   45.000                   670.33                   785.18                   1068.9                   1095.6                   1099.5                   1098.6                   679.81                   842.73                   1151.8                   1167.5                   1167.2                   1165.4                   672.88                   803.08                   1102.0                   1123.8                   1125.8                   1124.4                   677.04                   830.91                   1141.8                   1158.4                   1158.3                   1156.5                   666.56                   779.72                   1063.6                   1093.4                   1098.7                   1098.0                   671.53                   813.89                   1116.2                   1134.8                   1135.5                   1134.0                   585.03                   675.56                   913.46                   980.09                   1008.2                   1012.3                   328.04                   371.90                   462.27                   488.16                   503.65                   507.09                   192.43                   211.65                   249.17                   259.46                   265.99                   267.79                   139.55                   148.62                   163.99                   167.68                   169.94                   170.65
18.000                   3.0000                   2.0000                   1.1000                   2000.0                   4000.0                   50.000                   707.88                   846.58                   1097.3                   1114.8                   1115.8                   1114.4                   717.27                   896.74                   1148.6                   1159.8                   1158.4                   1156.5                   710.06                   861.61                   1116.3                   1131.3                   1131.3                   1129.7                   714.12                   885.04                   1140.7                   1152.6                   1151.4                   1149.6                   703.54                   835.41                   1089.6                   1110.2                   1112.3                   1111.1                   709.85                   870.62                   1123.0                   1136.2                   1135.6                   1133.9                   627.17                   715.55                   969.00                   1025.6                   1045.8                   1048.1                   362.20                   405.95                   496.29                   522.24                   537.66                   541.04                   215.72                   235.11                   273.14                   283.60                   290.24                   292.05                   157.48                   166.59                   182.07                   185.80                   188.08                   188.79
18.000                   3.0000                   2.0000                   1.1000                   2000.0                   4000.0                   55.000                   741.02                   907.40                   1117.6                   1128.5                   1127.4                   1125.7                   750.74                   944.63                   1147.1                   1154.8                   1152.6                   1150.6                   742.70                   917.35                   1127.8                   1137.6                   1136.2                   1134.4                   746.89                   934.48                   1141.4                   1149.7                   1147.6                   1145.7                   735.36                   891.79                   1110.6                   1123.9                   1123.6                   1122.1                   743.30                   923.82                   1130.3                   1139.3                   1137.6                   1135.7                   664.97                   755.76                   1032.8                   1078.8                   1089.9                   1090.2                   394.56                   438.08                   528.10                   554.01                   569.33                   572.64                   238.71                   258.27                   296.76                   307.36                   314.09                   315.90                   175.73                   184.89                   200.47                   204.22                   206.52                   207.23
18.000                   3.0000                   2.0000                   1.1000                   2000.0                   4000.0                   60.000                   787.45                   961.66                   1131.4                   1138.3                   1136.0                   1134.1                   799.34                   986.42                   1149.3                   1154.5                   1151.6                   1149.5                   787.95                   966.84                   1137.2                   1143.6                   1141.2                   1139.2                   793.56                   978.47                   1145.2                   1150.8                   1148.0                   1146.0                   774.86                   944.91                   1125.5                   1134.0                   1132.4                   1130.5                   789.82                   971.28                   1138.1                   1144.0                   1141.4                   1139.4                   696.37                   804.08                   1080.1                   1111.7                   1117.2                   1116.5                   424.25                   467.37                   556.63                   582.30                   597.40                   600.63                   261.18                   280.87                   319.71                   330.43                   337.22                   339.03                   194.26                   203.45                   219.10                   222.88                   225.19                   225.90
18.000                   3.0000                   2.0000                   1.1000                   2000.0                   4000.0                   65.000                   849.16                   1009.8                   1143.4                   1147.2                   1144.1                   1142.0                   858.75                   1024.7                   1153.7                   1156.8                   1153.3                   1151.1                   847.78                   1011.5                   1146.2                   1150.0                   1146.8                   1144.7                   853.05                   1018.9                   1150.9                   1154.2                   1150.8                   1148.7                   831.88                   993.63                   1138.1                   1143.2                   1140.5                   1138.5                   850.29                   1014.4                   1146.3                   1149.8                   1146.6                   1144.4                   724.21                   856.54                   1111.1                   1132.3                   1134.2                   1132.9                   452.04                   494.65                   582.76                   608.13                   623.04                   626.18                   283.14                   302.95                   342.09                   352.93                   359.78                   361.58                   212.82                   222.05                   237.78                   241.58                   243.90                   244.61
18.000                   3.0000                   2.0000                   1.1000                   2000.0                   4000.0                   70.000                   915.84                   1052.4                   1154.4                   1156.0                   1152.2                   1150.0                   921.27                   1059.8                   1159.8                   1161.1                   1157.1                   1154.9                   912.57                   1051.7                   1155.4                   1157.0                   1153.2                   1151.0                   916.67                   1056.0                   1157.9                   1159.4                   1155.5                   1153.2                   896.16                   1038.0                   1149.6                   1152.1                   1148.5                   1146.4                   915.21                   1053.5                   1155.1                   1156.6                   1152.7                   1150.5                   754.04                   909.79                   1131.9                   1145.4                   1145.0                   1143.3                   478.33                   520.35                   607.04                   632.12                   646.83                   649.89                   304.68                   324.57                   363.99                   374.92                   381.81                   383.61                   231.37                   240.63                   256.43                   260.25                   262.58                   263.28
18.000                   3.0000                   2.0000                   1.1000                   2000.0                   4000.0                   75.000                   977.47                   1087.6                   1165.4                   1165.3                   1160.9                   1158.6                   979.04                   1090.5                   1167.9                   1167.7                   1163.3                   1160.9                   973.07                   1085.7                   1165.2                   1165.2                   1160.8                   1158.5                   975.87                   1088.2                   1166.7                   1166.6                   1162.2                   1159.8                   958.91                   1075.6                   1160.7                   1161.3                   1157.1                   1154.8                   975.30                   1086.7                   1164.7                   1164.6                   1160.3                   1157.9                   793.80                   960.12                   1144.4                   1153.1                   1151.2                   1149.3                   502.83                   544.12                   629.18                   654.00                   668.52                   671.50                   325.63                   345.60                   385.22                   396.21                   403.14                   404.92                   249.84                   259.13                   274.98                   278.80                   281.14                   281.84