% Model:              batchmodel_COIL_N_18_COIL_kr_2.25_COIL_kh_2_COIL_kturn_1.4_FUNZ_freq_6000_FUNZ_I_eff_4000.mph
% Version:            COMSOL 5.6.0.280
% Date:               Feb 1 2022, 22:29
% Table:              Tabella 1 - GRIGLIA_T
% COIL_N                 COIL_kr                  COIL_kh                  COIL_kturn               FUNZ_freq                FUNZ_I_eff               Time (s)                 Temperatura (degC), Punto: (0, 0)Temperatura (degC), Punto: (15, 0)Temperatura (degC), Punto: (27.483, 0)Temperatura (degC), Punto: (28.742, 0)Temperatura (degC), Punto: (29.497, 0)Temperatura (degC), Punto: (29.748, 0)Temperatura (degC), Punto: (0, 62.5)Temperatura (degC), Punto: (15, 62.5)Temperatura (degC), Punto: (27.483, 62.5)Temperatura (degC), Punto: (28.742, 62.5)Temperatura (degC), Punto: (29.497, 62.5)Temperatura (degC), Punto: (29.748, 62.5)Temperatura (degC), Punto: (0, 125)Temperatura (degC), Punto: (15, 125)Temperatura (degC), Punto: (27.483, 125)Temperatura (degC), Punto: (28.742, 125)Temperatura (degC), Punto: (29.497, 125)Temperatura (degC), Punto: (29.748, 125)Temperatura (degC), Punto: (0, 187.5)Temperatura (degC), Punto: (15, 187.5)Temperatura (degC), Punto: (27.483, 187.5)Temperatura (degC), Punto: (28.742, 187.5)Temperatura (degC), Punto: (29.497, 187.5)Temperatura (degC), Punto: (29.748, 187.5)Temperatura (degC), Punto: (0, 250)Temperatura (degC), Punto: (15, 250)Temperatura (degC), Punto: (27.483, 250)Temperatura (degC), Punto: (28.742, 250)Temperatura (degC), Punto: (29.497, 250)Temperatura (degC), Punto: (29.748, 250)Temperatura (degC), Punto: (0, 312.5)Temperatura (degC), Punto: (15, 312.5)Temperatura (degC), Punto: (27.483, 312.5)Temperatura (degC), Punto: (28.742, 312.5)Temperatura (degC), Punto: (29.497, 312.5)Temperatura (degC), Punto: (29.748, 312.5)Temperatura (degC), Punto: (0, 375)Temperatura (degC), Punto: (15, 375)Temperatura (degC), Punto: (27.483, 375)Temperatura (degC), Punto: (28.742, 375)Temperatura (degC), Punto: (29.497, 375)Temperatura (degC), Punto: (29.748, 375)Temperatura (degC), Punto: (0, 437.5)Temperatura (degC), Punto: (15, 437.5)Temperatura (degC), Punto: (27.483, 437.5)Temperatura (degC), Punto: (28.742, 437.5)Temperatura (degC), Punto: (29.497, 437.5)Temperatura (degC), Punto: (29.748, 437.5)Temperatura (degC), Punto: (0, 468.75)Temperatura (degC), Punto: (15, 468.75)Temperatura (degC), Punto: (27.483, 468.75)Temperatura (degC), Punto: (28.742, 468.75)Temperatura (degC), Punto: (29.497, 468.75)Temperatura (degC), Punto: (29.748, 468.75)Temperatura (degC), Punto: (0, 492.19)Temperatura (degC), Punto: (15, 492.19)Temperatura (degC), Punto: (27.483, 492.19)Temperatura (degC), Punto: (28.742, 492.19)Temperatura (degC), Punto: (29.497, 492.19)Temperatura (degC), Punto: (29.748, 492.19)
18.000                   2.2500                   2.0000                   1.4000                   6000.0                   4000.0                   0.0000                   20.000                   20.000                   20.000                   20.000                   20.164                   20.367                   20.000                   20.000                   20.000                   20.000                   20.165                   20.368                   20.000                   20.000                   20.000                   20.000                   20.166                   20.369                   20.000                   20.000                   20.000                   20.000                   20.167                   20.371                   20.000                   20.000                   20.000                   20.000                   20.167                   20.371                   20.000                   20.000                   20.000                   20.000                   20.167                   20.371                   20.000                   20.000                   20.000                   20.000                   20.166                   20.370                   20.000                   20.000                   20.000                   20.000                   20.165                   20.368                   20.000                   20.000                   20.000                   20.000                   20.159                   20.358                   20.000                   20.000                   20.000                   20.000                   20.120                   20.292
18.000                   2.2500                   2.0000                   1.4000                   6000.0                   4000.0                   5.0000                   32.647                   86.050                   400.71                   472.79                   514.20                   522.84                   32.581                   86.024                   401.00                   473.00                   514.35                   522.97                   32.754                   86.889                   405.71                   478.45                   519.99                   528.59                   32.646                   86.399                   403.34                   475.75                   517.17                   525.80                   32.694                   86.588                   402.90                   475.23                   516.79                   525.44                   32.704                   86.694                   403.85                   476.36                   518.09                   526.76                   32.539                   85.873                   401.41                   474.17                   515.78                   524.39                   32.495                   85.607                   397.18                   468.32                   509.11                   517.62                   31.841                   82.192                   377.52                   443.98                   482.57                   490.68                   37.229                   81.478                   304.91                   350.46                   378.11                   384.31
18.000                   2.2500                   2.0000                   1.4000                   6000.0                   4000.0                   10.000                   117.06                   233.83                   697.30                   803.09                   861.26                   872.42                   117.02                   233.85                   697.14                   803.63                   861.70                   872.72                   117.52                   234.64                   694.37                   798.17                   855.41                   866.53                   117.11                   234.09                   697.81                   803.79                   862.09                   873.25                   117.24                   234.19                   697.13                   803.26                   862.68                   874.11                   117.34                   234.41                   696.45                   801.35                   859.37                   870.61                   116.70                   233.40                   695.65                   800.65                   858.32                   869.43                   116.17                   232.27                   694.16                   799.93                   858.06                   869.19                   111.16                   220.90                   647.59                   736.16                   788.03                   798.27                   110.33                   205.95                   536.89                   599.35                   634.28                   641.42
18.000                   2.2500                   2.0000                   1.4000                   6000.0                   4000.0                   15.000                   238.43                   378.81                   886.71                   980.31                   1019.6                   1026.0                   238.65                   381.72                   1060.1                   1148.4                   1169.9                   1171.9                   238.90                   379.72                   883.86                   971.94                   1008.9                   1014.9                   238.63                   380.30                   908.62                   998.34                   1031.9                   1036.9                   238.70                   382.02                   1073.3                   1158.7                   1179.3                   1181.2                   238.74                   379.29                   868.71                   953.06                   989.36                   995.39                   238.15                   379.15                   871.03                   952.32                   986.81                   992.53                   237.07                   380.86                   1084.5                   1167.0                   1186.6                   1188.3                   226.28                   358.70                   848.99                   956.59                   1003.2                   1010.9                   217.88                   334.12                   677.70                   735.12                   766.55                   772.72
18.000                   2.2500                   2.0000                   1.4000                   6000.0                   4000.0                   20.000                   353.17                   492.61                   905.00                   962.28                   988.13                   992.50                   355.52                   509.30                   1150.9                   1188.1                   1195.5                   1195.5                   354.34                   498.48                   980.43                   1040.7                   1060.1                   1062.5                   354.84                   501.44                   998.63                   1051.7                   1067.5                   1069.3                   355.65                   510.39                   1155.9                   1192.1                   1199.2                   1199.1                   354.16                   495.37                   897.73                   948.26                   970.85                   974.69                   354.20                   497.70                   919.80                   968.63                   989.21                   992.62                   354.45                   511.18                   1151.9                   1186.5                   1193.2                   1193.1                   336.78                   475.58                   1026.4                   1094.0                   1112.1                   1114.0                   321.03                   437.62                   749.52                   802.79                   831.46                   836.86
18.000                   2.2500                   2.0000                   1.4000                   6000.0                   4000.0                   25.000                   448.77                   578.56                   936.62                   977.47                   995.71                   998.74                   453.98                   605.07                   1154.8                   1177.8                   1181.5                   1181.0                   451.12                   589.80                   1061.1                   1099.1                   1108.5                   1109.1                   452.52                   593.50                   1054.0                   1088.3                   1096.7                   1097.2                   454.33                   606.52                   1156.0                   1178.5                   1182.1                   1181.6                   450.91                   584.03                   952.61                   990.82                   1006.6                   1009.0                   451.69                   588.09                   983.84                   1021.9                   1035.5                   1037.2                   453.80                   607.14                   1141.5                   1163.6                   1167.1                   1166.6                   431.60                   570.76                   1118.0                   1153.9                   1161.4                   1161.5                   408.14                   517.40                   808.21                   858.95                   884.93                   889.69
18.000                   2.2500                   2.0000                   1.4000                   6000.0                   4000.0                   30.000                   528.14                   647.89                   996.54                   1028.7                   1039.9                   1041.2                   535.21                   677.15                   1142.5                   1158.8                   1160.9                   1160.2                   531.37                   661.65                   1095.7                   1119.7                   1124.5                   1124.3                   533.32                   665.18                   1088.3                   1110.4                   1114.7                   1114.4                   535.74                   678.79                   1143.9                   1159.9                   1161.9                   1161.2                   531.18                   654.98                   1027.2                   1056.8                   1065.4                   1066.1                   532.44                   659.62                   1050.7                   1077.9                   1084.7                   1085.0                   535.62                   678.65                   1130.2                   1146.3                   1148.4                   1147.8                   511.61                   647.13                   1139.5                   1161.3                   1164.9                   1164.4                   480.67                   581.72                   856.52                   901.75                   924.40                   928.46
18.000                   2.2500                   2.0000                   1.4000                   6000.0                   4000.0                   35.000                   595.24                   706.21                   1065.6                   1087.8                   1092.6                   1092.5                   602.79                   733.46                   1132.1                   1144.4                   1145.5                   1144.7                   598.73                   719.66                   1109.4                   1125.4                   1127.7                   1127.2                   600.93                   723.20                   1109.0                   1123.9                   1125.9                   1125.3                   603.39                   735.14                   1134.3                   1146.3                   1147.4                   1146.6                   598.70                   713.84                   1085.1                   1104.1                   1107.6                   1107.2                   600.12                   718.29                   1094.8                   1111.8                   1114.6                   1114.2                   603.53                   734.86                   1127.2                   1139.4                   1140.5                   1139.8                   580.04                   709.24                   1144.8                   1159.4                   1161.0                   1160.2                   543.07                   635.47                   895.38                   933.74                   952.69                   956.03
18.000                   2.2500                   2.0000                   1.4000                   6000.0                   4000.0                   40.000                   649.23                   757.05                   1103.5                   1117.3                   1119.1                   1118.5                   656.12                   782.69                   1132.9                   1142.4                   1142.8                   1141.9                   652.43                   769.75                   1121.6                   1132.9                   1133.9                   1133.1                   654.61                   774.15                   1123.6                   1134.2                   1135.0                   1134.2                   656.72                   784.53                   1135.3                   1144.6                   1145.0                   1144.1                   652.60                   765.42                   1113.8                   1125.9                   1127.1                   1126.4                   653.94                   769.68                   1117.7                   1129.1                   1130.1                   1129.4                   657.04                   784.65                   1131.9                   1141.3                   1141.6                   1140.7                   635.83                   761.25                   1146.4                   1157.0                   1157.5                   1156.6                   595.75                   680.24                   930.05                   961.17                   976.39                   979.03
18.000                   2.2500                   2.0000                   1.4000                   6000.0                   4000.0                   45.000                   689.48                   809.97                   1124.5                   1133.7                   1134.1                   1133.3                   695.08                   831.83                   1139.5                   1146.8                   1146.6                   1145.6                   692.04                   821.07                   1133.5                   1141.7                   1141.8                   1140.8                   694.01                   825.93                   1135.8                   1143.6                   1143.6                   1142.6                   695.63                   833.82                   1141.8                   1149.0                   1148.7                   1147.7                   692.36                   818.76                   1131.1                   1139.5                   1139.7                   1138.7                   693.49                   822.51                   1133.0                   1141.1                   1141.1                   1140.2                   696.05                   834.34                   1139.9                   1147.1                   1146.8                   1145.8                   678.36                   811.53                   1149.3                   1157.4                   1157.2                   1156.2                   638.50                   718.44                   972.16                   998.01                   1009.3                   1011.0
18.000                   2.2500                   2.0000                   1.4000                   6000.0                   4000.0                   50.000                   721.77                   864.40                   1139.9                   1146.2                   1145.7                   1144.7                   725.83                   880.45                   1148.0                   1153.5                   1152.7                   1151.6                   723.52                   872.68                   1145.0                   1150.8                   1150.1                   1149.1                   725.17                   877.51                   1147.2                   1152.8                   1152.0                   1150.9                   726.33                   882.47                   1150.2                   1155.6                   1154.8                   1153.7                   723.92                   872.53                   1144.8                   1150.7                   1150.0                   1149.0                   724.80                   875.37                   1145.7                   1151.4                   1150.7                   1149.7                   726.77                   883.34                   1149.0                   1154.3                   1153.4                   1152.3                   713.24                   860.81                   1153.1                   1159.1                   1158.4                   1157.3                   675.74                   753.89                   1021.1                   1043.4                   1050.5                   1051.1
18.000                   2.2500                   2.0000                   1.4000                   6000.0                   4000.0                   55.000                   755.25                   915.18                   1153.4                   1157.9                   1156.8                   1155.7                   760.49                   926.40                   1158.6                   1162.7                   1161.4                   1160.3                   757.52                   920.89                   1156.8                   1161.1                   1159.9                   1158.8                   760.20                   925.25                   1158.8                   1163.0                   1161.7                   1160.6                   761.20                   928.17                   1160.7                   1164.7                   1163.4                   1162.2                   758.67                   921.90                   1157.5                   1161.8                   1160.6                   1159.4                   759.75                   923.87                   1157.9                   1162.1                   1160.9                   1159.7                   762.08                   928.93                   1159.5                   1163.4                   1162.1                   1161.0                   742.22                   905.07                   1158.0                   1162.6                   1161.4                   1160.3                   703.77                   800.16                   1073.3                   1088.3                   1091.6                   1091.4
18.000                   2.2500                   2.0000                   1.4000                   6000.0                   4000.0                   60.000                   798.32                   963.54                   1167.1                   1170.1                   1168.5                   1167.3                   804.23                   970.82                   1170.3                   1173.2                   1171.5                   1170.3                   800.84                   967.15                   1169.4                   1172.3                   1170.7                   1169.4                   804.39                   970.99                   1171.3                   1174.1                   1172.5                   1171.2                   805.06                   972.31                   1172.2                   1175.1                   1173.4                   1172.1                   802.72                   968.92                   1170.6                   1173.5                   1171.8                   1170.6                   803.90                   970.17                   1170.7                   1173.6                   1171.9                   1170.6                   806.11                   972.80                   1171.0                   1173.7                   1172.0                   1170.8                   778.27                   947.38                   1164.3                   1167.6                   1166.1                   1164.9                   731.08                   850.30                   1116.7                   1125.6                   1126.0                   1125.2
18.000                   2.2500                   2.0000                   1.4000                   6000.0                   4000.0                   65.000                   856.98                   1008.4                   1181.4                   1183.3                   1181.3                   1180.0                   862.39                   1013.1                   1183.6                   1185.4                   1183.4                   1182.1                   859.12                   1010.6                   1183.0                   1185.0                   1183.0                   1181.6                   863.15                   1013.9                   1184.9                   1186.8                   1184.7                   1183.4                   863.12                   1014.3                   1185.4                   1187.3                   1185.2                   1183.9                   861.61                   1012.6                   1184.5                   1186.4                   1184.4                   1183.1                   862.68                   1013.4                   1184.4                   1186.3                   1184.3                   1182.9                   863.89                   1014.3                   1183.8                   1185.7                   1183.6                   1182.3                   826.64                   987.10                   1172.8                   1175.2                   1173.3                   1172.0                   758.29                   905.49                   1145.3                   1150.5                   1149.5                   1148.4
18.000                   2.2500                   2.0000                   1.4000                   6000.0                   4000.0                   70.000                   916.61                   1048.6                   1197.6                   1198.7                   1196.4                   1195.0                   920.78                   1051.8                   1199.2                   1200.3                   1197.9                   1196.5                   918.11                   1050.0                   1198.9                   1200.1                   1197.7                   1196.3                   921.82                   1052.9                   1200.7                   1201.8                   1199.5                   1198.1                   921.31                   1052.7                   1200.9                   1202.1                   1199.7                   1198.3                   920.60                   1052.0                   1200.5                   1201.7                   1199.3                   1197.9                   921.39                   1052.4                   1200.3                   1201.4                   1199.1                   1197.7                   921.38                   1052.0                   1198.9                   1200.0                   1197.6                   1196.3                   881.82                   1024.2                   1184.4                   1185.9                   1183.7                   1182.4                   806.77                   959.94                   1169.3                   1172.4                   1170.6                   1169.4
18.000                   2.2500                   2.0000                   1.4000                   6000.0                   4000.0                   75.000                   974.10                   1086.6                   1214.8                   1215.2                   1212.5                   1211.1                   977.01                   1088.6                   1215.9                   1216.3                   1213.7                   1212.2                   974.98                   1087.4                   1215.9                   1216.3                   1213.7                   1212.2                   978.19                   1089.8                   1217.6                   1218.0                   1215.4                   1213.9                   977.32                   1089.3                   1217.6                   1218.1                   1215.4                   1213.9                   977.29                   1089.3                   1217.5                   1218.0                   1215.3                   1213.9                   977.78                   1089.4                   1217.2                   1217.6                   1215.0                   1213.5                   976.59                   1088.0                   1215.1                   1215.5                   1212.8                   1211.4                   937.08                   1059.8                   1197.4                   1198.2                   1195.7                   1194.3                   862.58                   1012.6                   1192.1                   1193.5                   1191.3                   1189.9