% Model:              batchmodel_COIL_N_18_COIL_kr_1.5_COIL_kh_2_COIL_kturn_1.4_FUNZ_freq_2000_FUNZ_I_eff_1000.mph
% Version:            COMSOL 5.6.0.280
% Date:               Feb 1 2022, 14:07
% Table:              Tabella 1 - GRIGLIA_T
% COIL_N                 COIL_kr                  COIL_kh                  COIL_kturn               FUNZ_freq                FUNZ_I_eff               Time (s)                 Temperatura (degC), Punto: (0, 0)Temperatura (degC), Punto: (15, 0)Temperatura (degC), Punto: (25.641, 0)Temperatura (degC), Punto: (27.821, 0)Temperatura (degC), Punto: (29.128, 0)Temperatura (degC), Punto: (29.564, 0)Temperatura (degC), Punto: (0, 62.5)Temperatura (degC), Punto: (15, 62.5)Temperatura (degC), Punto: (25.641, 62.5)Temperatura (degC), Punto: (27.821, 62.5)Temperatura (degC), Punto: (29.128, 62.5)Temperatura (degC), Punto: (29.564, 62.5)Temperatura (degC), Punto: (0, 125)Temperatura (degC), Punto: (15, 125)Temperatura (degC), Punto: (25.641, 125)Temperatura (degC), Punto: (27.821, 125)Temperatura (degC), Punto: (29.128, 125)Temperatura (degC), Punto: (29.564, 125)Temperatura (degC), Punto: (0, 187.5)Temperatura (degC), Punto: (15, 187.5)Temperatura (degC), Punto: (25.641, 187.5)Temperatura (degC), Punto: (27.821, 187.5)Temperatura (degC), Punto: (29.128, 187.5)Temperatura (degC), Punto: (29.564, 187.5)Temperatura (degC), Punto: (0, 250)Temperatura (degC), Punto: (15, 250)Temperatura (degC), Punto: (25.641, 250)Temperatura (degC), Punto: (27.821, 250)Temperatura (degC), Punto: (29.128, 250)Temperatura (degC), Punto: (29.564, 250)Temperatura (degC), Punto: (0, 312.5)Temperatura (degC), Punto: (15, 312.5)Temperatura (degC), Punto: (25.641, 312.5)Temperatura (degC), Punto: (27.821, 312.5)Temperatura (degC), Punto: (29.128, 312.5)Temperatura (degC), Punto: (29.564, 312.5)Temperatura (degC), Punto: (0, 375)Temperatura (degC), Punto: (15, 375)Temperatura (degC), Punto: (25.641, 375)Temperatura (degC), Punto: (27.821, 375)Temperatura (degC), Punto: (29.128, 375)Temperatura (degC), Punto: (29.564, 375)Temperatura (degC), Punto: (0, 437.5)Temperatura (degC), Punto: (15, 437.5)Temperatura (degC), Punto: (25.641, 437.5)Temperatura (degC), Punto: (27.821, 437.5)Temperatura (degC), Punto: (29.128, 437.5)Temperatura (degC), Punto: (29.564, 437.5)Temperatura (degC), Punto: (0, 468.75)Temperatura (degC), Punto: (15, 468.75)Temperatura (degC), Punto: (25.641, 468.75)Temperatura (degC), Punto: (27.821, 468.75)Temperatura (degC), Punto: (29.128, 468.75)Temperatura (degC), Punto: (29.564, 468.75)Temperatura (degC), Punto: (0, 492.19)Temperatura (degC), Punto: (15, 492.19)Temperatura (degC), Punto: (25.641, 492.19)Temperatura (degC), Punto: (27.821, 492.19)Temperatura (degC), Punto: (29.128, 492.19)Temperatura (degC), Punto: (29.564, 492.19)
18.000                   1.5000                   2.0000                   1.4000                   2000.0                   1000.0                   0.0000                   20.000                   20.000                   20.000                   20.000                   20.001                   20.013                   20.000                   20.000                   20.000                   20.000                   20.001                   20.013                   20.000                   20.000                   20.000                   20.000                   20.001                   20.014                   20.000                   20.000                   20.000                   20.000                   20.001                   20.014                   20.000                   20.000                   20.000                   20.000                   20.001                   20.014                   20.000                   20.000                   20.000                   20.000                   20.001                   20.014                   20.000                   20.000                   20.000                   20.000                   20.001                   20.014                   20.000                   20.000                   20.000                   20.000                   20.001                   20.014                   20.000                   20.000                   20.000                   20.000                   20.001                   20.014                   20.000                   20.000                   20.000                   20.000                   20.000                   20.007
18.000                   1.5000                   2.0000                   1.4000                   2000.0                   1000.0                   5.0000                   21.031                   23.857                   34.918                   38.971                   41.767                   42.707                   21.034                   23.874                   35.019                   39.111                   41.938                   42.887                   21.044                   23.923                   35.279                   39.465                   42.362                   43.334                   21.052                   23.969                   35.512                   39.778                   42.732                   43.722                   21.057                   23.994                   35.633                   39.937                   42.918                   43.917                   21.056                   23.988                   35.604                   39.898                   42.873                   43.870                   21.049                   23.952                   35.430                   39.669                   42.603                   43.588                   21.039                   23.901                   35.171                   39.320                   42.190                   43.153                   20.992                   23.791                   35.001                   39.173                   42.071                   43.045                   20.802                   22.807                   30.154                   32.790                   34.595                   35.218
18.000                   1.5000                   2.0000                   1.4000                   2000.0                   1000.0                   10.000                   26.037                   32.138                   47.488                   52.001                   54.958                   55.925                   26.049                   32.176                   47.628                   52.183                   55.173                   56.151                   26.083                   32.279                   47.977                   52.626                   55.683                   56.682                   26.115                   32.378                   48.305                   53.037                   56.153                   57.171                   26.134                   32.434                   48.482                   53.255                   56.400                   57.427                   26.128                   32.420                   48.439                   53.202                   56.340                   57.364                   26.103                   32.342                   48.189                   52.892                   55.990                   57.002                   26.045                   32.208                   47.800                   52.410                   55.439                   56.430                   25.675                   31.638                   47.014                   51.632                   54.686                   55.688                   24.669                   29.028                   39.384                   42.336                   44.248                   44.890
18.000                   1.5000                   2.0000                   1.4000                   2000.0                   1000.0                   15.000                   33.608                   41.729                   59.097                   63.841                   66.878                   67.851                   33.628                   41.780                   59.255                   64.044                   67.112                   68.096                   33.684                   41.917                   59.643                   64.524                   67.659                   68.664                   33.738                   42.051                   60.018                   64.983                   68.178                   69.201                   33.769                   42.127                   60.221                   65.229                   68.451                   69.482                   33.761                   42.108                   60.170                   65.168                   68.384                   69.413                   33.717                   42.002                   59.884                   64.821                   67.997                   69.014                   33.580                   41.770                   59.381                   64.222                   67.330                   68.326                   32.655                   40.534                   57.822                   62.661                   65.790                   66.797                   30.624                   36.463                   48.274                   51.386                   53.349                   53.995
18.000                   1.5000                   2.0000                   1.4000                   2000.0                   1000.0                   20.000                   42.722                   51.969                   70.282                   75.150                   78.236                   79.215                   42.748                   52.028                   70.449                   75.360                   78.478                   79.467                   42.821                   52.184                   70.853                   75.856                   79.041                   80.051                   42.891                   52.339                   71.249                   76.337                   79.581                   80.609                   42.932                   52.427                   71.464                   76.594                   79.865                   80.901                   42.921                   52.404                   71.410                   76.530                   79.795                   80.829                   42.864                   52.281                   71.107                   76.166                   79.391                   80.413                   42.610                   51.925                   70.476                   75.438                   78.596                   79.597                   40.986                   49.913                   68.072                   73.028                   76.204                   77.216                   37.914                   44.594                   57.103                   60.297                   62.292                   62.942
18.000                   1.5000                   2.0000                   1.4000                   2000.0                   1000.0                   25.000                   52.673                   62.558                   81.333                   86.277                   89.404                   90.390                   52.704                   62.622                   81.503                   86.490                   89.648                   90.644                   52.788                   62.789                   81.912                   86.992                   90.218                   91.234                   52.870                   62.956                   82.318                   87.481                   90.766                   91.800                   52.918                   63.051                   82.538                   87.743                   91.054                   92.096                   52.905                   63.026                   82.482                   87.677                   90.983                   92.023                   52.837                   62.892                   82.171                   87.306                   90.571                   91.600                   52.429                   62.378                   81.383                   86.422                   89.619                   90.627                   50.042                   59.553                   78.123                   83.151                   86.367                   87.384                   45.998                   53.164                   66.019                   69.263                   71.283                   71.937
18.000                   1.5000                   2.0000                   1.4000                   2000.0                   1000.0                   30.000                   63.353                   73.449                   92.401                   97.403                   100.57                   101.57                   63.385                   73.514                   92.571                   97.615                   100.81                   101.82                   63.475                   73.684                   92.980                   98.117                   101.38                   102.41                   63.563                   73.855                   93.385                   98.607                   101.93                   102.98                   63.613                   73.951                   93.605                   98.867                   102.22                   103.27                   63.600                   73.926                   93.550                   98.802                   102.15                   103.20                   63.525                   73.786                   93.235                   98.428                   101.73                   102.77                   62.901                   73.059                   92.236                   97.333                   100.57                   101.59                   59.721                   69.419                   88.147                   93.230                   96.485                   97.512                   54.869                   62.203                   75.189                   78.466                   80.509                   81.169
18.000                   1.5000                   2.0000                   1.4000                   2000.0                   1000.0                   35.000                   74.032                   84.339                   103.47                   108.53                   111.74                   112.74                   74.067                   84.406                   103.64                   108.74                   111.98                   113.00                   74.162                   84.579                   104.05                   109.24                   112.55                   113.58                   74.255                   84.754                   104.45                   109.73                   113.10                   114.15                   74.309                   84.852                   104.67                   109.99                   113.39                   114.45                   74.294                   84.827                   104.62                   109.93                   113.31                   114.37                   74.212                   84.681                   104.30                   109.55                   112.90                   113.94                   73.374                   83.739                   103.09                   108.24                   111.52                   112.55                   69.399                   79.286                   98.171                   103.31                   106.60                   107.64                   63.740                   71.241                   84.358                   87.670                   89.735                   90.402
18.000                   1.5000                   2.0000                   1.4000                   2000.0                   1000.0                   40.000                   84.889                   95.320                   114.62                   119.74                   122.99                   124.01                   84.925                   95.388                   114.79                   119.95                   123.24                   124.26                   85.023                   95.561                   115.19                   120.45                   123.80                   124.85                   85.119                   95.737                   115.60                   120.94                   124.35                   125.41                   85.174                   95.837                   115.82                   121.20                   124.64                   125.71                   85.159                   95.811                   115.76                   121.13                   124.57                   125.64                   85.069                   95.659                   115.44                   120.75                   124.15                   125.20                   83.987                   94.474                   113.99                   119.21                   122.53                   123.57                   79.241                   89.235                   108.27                   113.47                   116.81                   117.86                   72.874                   80.469                   93.689                   97.035                   99.125                   99.798
18.000                   1.5000                   2.0000                   1.4000                   2000.0                   1000.0                   45.000                   96.000                   106.43                   125.88                   131.07                   134.38                   135.40                   96.036                   106.50                   126.05                   131.28                   134.62                   135.65                   96.133                   106.67                   126.45                   131.78                   135.18                   136.24                   96.229                   106.84                   126.86                   132.27                   135.73                   136.81                   96.285                   106.94                   127.07                   132.53                   136.02                   137.10                   96.269                   106.92                   127.02                   132.46                   135.95                   137.03                   96.172                   106.76                   126.69                   132.07                   135.52                   136.59                   94.801                   105.29                   124.95                   130.24                   133.62                   134.67                   89.318                   99.304                   118.48                   123.75                   127.14                   128.20                   82.385                   89.969                   103.25                   106.63                   108.75                   109.43
18.000                   1.5000                   2.0000                   1.4000                   2000.0                   1000.0                   50.000                   107.11                   117.54                   137.14                   142.40                   145.76                   146.80                   107.15                   117.60                   137.31                   142.61                   146.00                   147.05                   107.24                   117.77                   137.71                   143.11                   146.56                   147.63                   107.34                   117.95                   138.11                   143.60                   147.11                   148.20                   107.39                   118.05                   138.33                   143.85                   147.40                   148.49                   107.38                   118.02                   138.27                   143.79                   147.32                   148.42                   107.27                   117.86                   137.94                   143.39                   146.89                   147.97                   105.62                   116.10                   135.92                   141.28                   144.70                   145.77                   99.394                   109.37                   128.70                   134.03                   137.47                   138.54                   91.896                   99.469                   112.82                   116.23                   118.37                   119.06
18.000                   1.5000                   2.0000                   1.4000                   2000.0                   1000.0                   55.000                   118.30                   128.76                   148.56                   153.90                   157.31                   158.36                   118.33                   128.82                   148.73                   154.11                   157.55                   158.61                   118.43                   128.99                   149.13                   154.61                   158.12                   159.20                   118.53                   129.16                   149.53                   155.09                   158.66                   159.76                   118.58                   129.26                   149.75                   155.35                   158.95                   160.05                   118.56                   129.24                   149.69                   155.28                   158.87                   159.98                   118.45                   129.06                   149.35                   154.88                   158.43                   159.52                   116.47                   126.99                   147.01                   152.45                   155.93                   157.00                   109.57                   119.58                   139.10                   144.51                   148.00                   149.09                   101.59                   109.17                   122.62                   126.07                   128.24                   128.94
18.000                   1.5000                   2.0000                   1.4000                   2000.0                   1000.0                   60.000                   129.55                   140.08                   160.13                   165.55                   169.02                   170.08                   129.59                   140.14                   160.30                   165.76                   169.26                   170.33                   129.69                   140.31                   160.70                   166.26                   169.83                   170.92                   129.78                   140.48                   161.10                   166.75                   170.37                   171.48                   129.83                   140.58                   161.32                   167.00                   170.65                   171.77                   129.82                   140.55                   161.26                   166.94                   170.58                   171.70                   129.68                   140.36                   160.90                   166.51                   170.12                   171.22                   127.36                   137.95                   158.23                   163.74                   167.28                   168.37                   119.85                   129.92                   149.68                   155.18                   158.72                   159.82                   111.46                   119.07                   132.64                   136.13                   138.33                   139.03
18.000                   1.5000                   2.0000                   1.4000                   2000.0                   1000.0                   65.000                   140.81                   151.40                   171.70                   177.21                   180.73                   181.80                   140.85                   151.47                   171.87                   177.42                   180.97                   182.05                   140.94                   151.63                   172.27                   177.91                   181.53                   182.64                   141.04                   151.80                   172.67                   178.40                   182.08                   183.20                   141.09                   151.90                   172.89                   178.66                   182.36                   183.49                   141.07                   151.87                   172.83                   178.59                   182.29                   183.42                   140.92                   151.66                   172.45                   178.15                   181.81                   182.92                   138.26                   148.90                   169.44                   175.04                   178.64                   179.73                   130.13                   140.26                   160.27                   165.84                   169.45                   170.55                   121.33                   128.97                   142.66                   146.19                   148.42                   149.13
18.000                   1.5000                   2.0000                   1.4000                   2000.0                   1000.0                   70.000                   152.07                   162.72                   183.27                   188.86                   192.44                   193.52                   152.10                   162.79                   183.44                   189.07                   192.68                   193.77                   152.20                   162.95                   183.84                   189.57                   193.24                   194.36                   152.29                   163.12                   184.24                   190.05                   193.79                   194.92                   152.34                   163.22                   184.46                   190.31                   194.07                   195.22                   152.33                   163.19                   184.40                   190.24                   194.00                   195.14                   152.16                   162.96                   184.00                   189.78                   193.50                   194.63                   149.15                   159.86                   180.65                   186.34                   189.99                   191.10                   140.40                   150.59                   170.85                   176.51                   180.17                   181.29                   131.20                   138.86                   152.68                   156.26                   158.51                   159.23
18.000                   1.5000                   2.0000                   1.4000                   2000.0                   1000.0                   75.000                   163.33                   174.04                   194.84                   200.51                   204.14                   205.25                   163.36                   174.11                   195.01                   200.72                   204.39                   205.50                   163.45                   174.27                   195.41                   201.22                   204.95                   206.08                   163.55                   174.44                   195.81                   201.71                   205.50                   206.64                   163.60                   174.53                   196.03                   201.96                   205.78                   206.94                   163.58                   174.51                   195.97                   201.89                   205.71                   206.86                   163.39                   174.26                   195.55                   201.42                   205.19                   206.33                   160.04                   170.82                   191.87                   197.64                   201.34                   202.46                   150.68                   160.93                   181.43                   187.17                   190.89                   192.02                   141.07                   148.76                   162.70                   166.32                   168.60                   169.32