% Model:              batchmodel_COIL_N_18_COIL_kr_1.5_COIL_kh_3_COIL_kturn_1.4_FUNZ_freq_6000_FUNZ_I_eff_4000.mph
% Version:            COMSOL 5.6.0.280
% Date:               Feb 1 2022, 18:03
% Table:              Tabella 1 - GRIGLIA_T
% COIL_N                 COIL_kr                  COIL_kh                  COIL_kturn               FUNZ_freq                FUNZ_I_eff               Time (s)                 Temperatura (degC), Punto: (0, 0)Temperatura (degC), Punto: (15, 0)Temperatura (degC), Punto: (27.483, 0)Temperatura (degC), Punto: (28.742, 0)Temperatura (degC), Punto: (29.497, 0)Temperatura (degC), Punto: (29.748, 0)Temperatura (degC), Punto: (0, 62.5)Temperatura (degC), Punto: (15, 62.5)Temperatura (degC), Punto: (27.483, 62.5)Temperatura (degC), Punto: (28.742, 62.5)Temperatura (degC), Punto: (29.497, 62.5)Temperatura (degC), Punto: (29.748, 62.5)Temperatura (degC), Punto: (0, 125)Temperatura (degC), Punto: (15, 125)Temperatura (degC), Punto: (27.483, 125)Temperatura (degC), Punto: (28.742, 125)Temperatura (degC), Punto: (29.497, 125)Temperatura (degC), Punto: (29.748, 125)Temperatura (degC), Punto: (0, 187.5)Temperatura (degC), Punto: (15, 187.5)Temperatura (degC), Punto: (27.483, 187.5)Temperatura (degC), Punto: (28.742, 187.5)Temperatura (degC), Punto: (29.497, 187.5)Temperatura (degC), Punto: (29.748, 187.5)Temperatura (degC), Punto: (0, 250)Temperatura (degC), Punto: (15, 250)Temperatura (degC), Punto: (27.483, 250)Temperatura (degC), Punto: (28.742, 250)Temperatura (degC), Punto: (29.497, 250)Temperatura (degC), Punto: (29.748, 250)Temperatura (degC), Punto: (0, 312.5)Temperatura (degC), Punto: (15, 312.5)Temperatura (degC), Punto: (27.483, 312.5)Temperatura (degC), Punto: (28.742, 312.5)Temperatura (degC), Punto: (29.497, 312.5)Temperatura (degC), Punto: (29.748, 312.5)Temperatura (degC), Punto: (0, 375)Temperatura (degC), Punto: (15, 375)Temperatura (degC), Punto: (27.483, 375)Temperatura (degC), Punto: (28.742, 375)Temperatura (degC), Punto: (29.497, 375)Temperatura (degC), Punto: (29.748, 375)Temperatura (degC), Punto: (0, 437.5)Temperatura (degC), Punto: (15, 437.5)Temperatura (degC), Punto: (27.483, 437.5)Temperatura (degC), Punto: (28.742, 437.5)Temperatura (degC), Punto: (29.497, 437.5)Temperatura (degC), Punto: (29.748, 437.5)Temperatura (degC), Punto: (0, 468.75)Temperatura (degC), Punto: (15, 468.75)Temperatura (degC), Punto: (27.483, 468.75)Temperatura (degC), Punto: (28.742, 468.75)Temperatura (degC), Punto: (29.497, 468.75)Temperatura (degC), Punto: (29.748, 468.75)Temperatura (degC), Punto: (0, 492.19)Temperatura (degC), Punto: (15, 492.19)Temperatura (degC), Punto: (27.483, 492.19)Temperatura (degC), Punto: (28.742, 492.19)Temperatura (degC), Punto: (29.497, 492.19)Temperatura (degC), Punto: (29.748, 492.19)
18.000                   1.5000                   3.0000                   1.4000                   6000.0                   4000.0                   0.0000                   20.000                   20.000                   20.000                   20.000                   20.070                   20.200                   20.000                   20.000                   20.000                   20.000                   20.098                   20.253                   20.000                   20.000                   20.000                   20.000                   20.106                   20.268                   20.000                   20.000                   20.000                   20.000                   20.096                   20.249                   20.000                   20.000                   20.000                   20.000                   20.071                   20.201                   20.000                   20.000                   20.000                   20.000                   20.100                   20.257                   20.000                   20.000                   20.000                   20.000                   20.106                   20.267                   20.000                   20.000                   20.000                   20.000                   20.093                   20.244                   20.000                   20.000                   20.000                   20.000                   20.107                   20.268                   20.000                   20.000                   20.000                   20.000                   20.086                   20.232
18.000                   1.5000                   3.0000                   1.4000                   6000.0                   4000.0                   5.0000                   26.922                   54.622                   203.42                   232.10                   250.14                   254.56                   27.668                   59.323                   232.41                   265.81                   287.17                   292.43                   28.155                   61.748                   246.03                   281.74                   303.33                   308.59                   27.550                   58.721                   232.48                   267.56                   289.78                   294.76                   26.887                   54.612                   203.40                   231.66                   248.96                   253.36                   27.786                   59.984                   236.36                   270.67                   291.98                   297.14                   28.130                   61.654                   245.23                   280.79                   302.80                   308.18                   27.433                   58.064                   226.18                   258.79                   279.24                   284.10                   28.235                   61.899                   248.56                   285.63                   308.40                   313.78                   34.273                   68.913                   231.18                   260.95                   279.55                   284.30
18.000                   1.5000                   3.0000                   1.4000                   6000.0                   4000.0                   10.000                   77.859                   142.50                   361.24                   399.70                   422.56                   427.66                   81.693                   152.16                   399.76                   444.59                   470.58                   476.20                   84.853                   159.02                   420.39                   468.45                   496.36                   502.30                   81.206                   151.12                   395.38                   439.27                   464.92                   470.61                   77.820                   142.45                   361.15                   399.70                   422.84                   427.94                   82.423                   153.77                   404.51                   450.20                   476.80                   482.51                   84.621                   158.62                   420.48                   468.88                   496.79                   502.72                   80.620                   149.85                   392.86                   436.95                   462.88                   468.53                   85.845                   160.20                   423.11                   471.55                   499.62                   505.56                   95.898                   167.69                   392.86                   431.22                   453.59                   458.45
18.000                   1.5000                   3.0000                   1.4000                   6000.0                   4000.0                   15.000                   157.34                   242.61                   514.71                   562.69                   589.69                   595.33                   163.51                   254.69                   555.58                   609.92                   640.97                   647.41                   169.01                   263.99                   576.73                   632.76                   664.66                   671.26                   162.74                   253.32                   551.18                   605.27                   636.42                   642.77                   157.33                   242.69                   514.32                   561.81                   588.39                   594.03                   164.71                   256.80                   561.21                   616.61                   647.44                   653.84                   168.65                   263.60                   578.21                   636.41                   668.79                   675.30                   162.03                   252.16                   548.05                   601.18                   630.99                   637.14                   171.35                   266.26                   580.18                   637.26                   668.73                   675.22                   183.44                   273.79                   540.32                   585.02                   610.66                   616.17
18.000                   1.5000                   3.0000                   1.4000                   6000.0                   4000.0                   20.000                   243.54                   340.81                   647.81                   703.03                   732.60                   738.56                   250.59                   352.59                   674.27                   730.45                   763.25                   770.10                   257.47                   363.46                   702.76                   765.16                   801.77                   809.13                   249.74                   351.33                   672.95                   730.02                   764.37                   771.40                   243.48                   340.50                   642.02                   693.77                   721.98                   727.97                   252.14                   355.25                   682.61                   741.12                   774.74                   781.74                   257.19                   363.44                   708.61                   778.14                   816.79                   824.12                   249.15                   350.37                   668.86                   723.89                   755.59                   762.29                   260.86                   366.53                   707.19                   772.40                   808.74                   816.03                   275.01                   374.44                   659.88                   706.47                   732.53                   738.22
18.000                   1.5000                   3.0000                   1.4000                   6000.0                   4000.0                   25.000                   328.43                   430.95                   749.22                   812.96                   847.33                   853.75                   335.58                   442.37                   790.23                   866.54                   904.88                   911.81                   343.17                   454.45                   840.12                   925.00                   964.61                   971.40                   334.73                   441.22                   788.04                   863.86                   902.06                   908.98                   328.23                   430.27                   744.36                   806.67                   840.72                   847.12                   337.40                   445.45                   801.41                   879.51                   918.19                   925.09                   343.21                   455.52                   867.89                   951.37                   987.74                   993.78                   334.33                   440.31                   781.36                   855.13                   892.68                   899.52                   347.24                   458.19                   847.21                   930.32                   968.26                   974.71                   358.38                   461.17                   751.97                   807.47                   837.92                   843.66
18.000                   1.5000                   3.0000                   1.4000                   6000.0                   4000.0                   30.000                   406.23                   508.87                   827.88                   889.26                   919.56                   924.97                   413.66                   520.93                   868.14                   932.50                   962.86                   968.12                   422.02                   537.50                   1034.4                   1096.5                   1115.2                   1117.3                   412.74                   519.55                   868.02                   933.49                   964.36                   969.70                   405.91                   508.08                   824.22                   885.34                   915.66                   921.09                   415.77                   524.49                   875.91                   939.02                   968.59                   973.69                   423.23                   543.37                   1095.4                   1146.0                   1157.7                   1158.4                   412.39                   518.47                   860.91                   925.59                   956.34                   961.69                   426.82                   542.97                   1000.4                   1060.3                   1078.7                   1080.8                   432.09                   533.81                   819.88                   871.98                   898.39                   903.18
18.000                   1.5000                   3.0000                   1.4000                   6000.0                   4000.0                   35.000                   475.17                   575.21                   891.98                   946.59                   972.54                   977.03                   483.56                   588.32                   917.74                   968.64                   992.46                   996.51                   494.14                   615.98                   1149.0                   1177.3                   1182.3                   1181.9                   482.37                   586.41                   918.79                   971.77                   996.54                   1000.7                   474.79                   574.44                   889.08                   943.66                   969.66                   974.16                   486.06                   592.60                   924.92                   973.13                   995.48                   999.26                   496.54                   622.63                   1153.4                   1178.9                   1183.2                   1182.8                   481.93                   585.03                   913.02                   966.17                   991.15                   995.41                   499.12                   618.70                   1096.4                   1130.2                   1137.5                   1137.6                   497.28                   594.67                   871.85                   917.49                   939.98                   943.95
18.000                   1.5000                   3.0000                   1.4000                   6000.0                   4000.0                   40.000                   536.34                   631.11                   939.88                   986.07                   1007.6                   1011.1                   546.29                   645.87                   961.74                   1001.6                   1019.0                   1021.8                   560.55                   685.55                   1153.7                   1170.1                   1172.0                   1171.3                   544.71                   643.14                   956.98                   998.56                   1017.2                   1020.2                   535.94                   630.34                   937.38                   983.64                   1005.3                   1008.9                   549.29                   651.12                   981.21                   1020.1                   1035.2                   1037.4                   563.33                   690.20                   1153.0                   1169.0                   1170.9                   1170.1                   544.05                   641.35                   950.18                   992.22                   1011.5                   1014.7                   564.63                   683.62                   1126.7                   1147.0                   1150.4                   1149.9                   555.13                   645.50                   910.53                   949.19                   968.11                   971.40
18.000                   1.5000                   3.0000                   1.4000                   6000.0                   4000.0                   45.000                   588.94                   676.86                   966.59                   1003.7                   1020.4                   1023.1                   600.62                   694.63                   1023.8                   1056.2                   1066.2                   1067.2                   618.38                   741.10                   1136.1                   1147.5                   1148.3                   1147.5                   598.63                   691.02                   1007.9                   1041.4                   1053.0                   1054.3                   588.55                   676.12                   964.18                   1001.4                   1018.3                   1021.0                   604.02                   700.94                   1051.4                   1080.5                   1088.1                   1088.5                   620.63                   743.78                   1138.0                   1149.4                   1150.3                   1149.4                   597.70                   688.59                   990.83                   1024.2                   1037.2                   1039.0                   620.70                   736.28                   1130.8                   1144.6                   1146.1                   1145.4                   604.48                   687.04                   935.89                   967.23                   982.53                   985.17
18.000                   1.5000                   3.0000                   1.4000                   6000.0                   4000.0                   50.000                   631.54                   712.25                   974.63                   1003.4                   1016.4                   1018.4                   644.75                   736.29                   1069.6                   1092.2                   1097.4                   1097.4                   664.04                   788.63                   1130.2                   1139.2                   1139.4                   1138.5                   642.52                   731.70                   1056.4                   1081.1                   1087.4                   1087.6                   631.17                   711.51                   973.04                   1002.0                   1015.1                   1017.2                   648.33                   743.87                   1086.9                   1106.2                   1110.0                   1109.7                   665.57                   790.32                   1131.5                   1140.6                   1140.8                   1139.9                   641.32                   728.22                   1038.6                   1064.7                   1072.4                   1073.0                   664.86                   782.86                   1131.1                   1141.4                   1142.0                   1141.1                   644.31                   720.23                   956.06                   981.32                   993.44                   995.47
18.000                   1.5000                   3.0000                   1.4000                   6000.0                   4000.0                   55.000                   667.44                   742.75                   979.86                   1001.8                   1011.7                   1013.3                   681.64                   777.36                   1095.4                   1110.6                   1113.1                   1112.6                   700.34                   833.11                   1129.1                   1136.3                   1136.0                   1135.1                   679.36                   771.47                   1087.0                   1103.9                   1107.0                   1106.6                   667.10                   742.01                   979.35                   1001.5                   1011.5                   1013.1                   685.13                   786.32                   1104.8                   1117.9                   1119.6                   1118.9                   701.25                   833.97                   1129.8                   1136.9                   1136.7                   1135.7                   677.98                   766.56                   1074.0                   1093.0                   1097.1                   1096.9                   700.14                   827.25                   1131.5                   1139.4                   1139.3                   1138.4                   677.86                   750.91                   980.14                   1000.8                   1010.0                   1011.4
18.000                   1.5000                   3.0000                   1.4000                   6000.0                   4000.0                   60.000                   696.88                   771.85                   989.07                   1006.1                   1013.5                   1014.5                   711.22                   819.49                   1108.7                   1119.3                   1120.3                   1119.5                   728.87                   874.30                   1130.9                   1136.6                   1135.9                   1134.9                   709.03                   812.43                   1102.9                   1114.7                   1116.1                   1115.4                   696.57                   771.19                   989.45                   1006.8                   1014.2                   1015.2                   714.50                   829.35                   1114.5                   1123.8                   1124.4                   1123.6                   729.34                   874.49                   1131.1                   1136.8                   1136.1                   1135.1                   707.55                   806.12                   1094.0                   1107.4                   1109.4                   1108.9                   727.96                   868.67                   1132.6                   1138.7                   1138.1                   1137.1                   705.24                   783.99                   1018.4                   1035.5                   1041.4                   1042.0
18.000                   1.5000                   3.0000                   1.4000                   6000.0                   4000.0                   65.000                   720.11                   802.66                   1005.0                   1018.8                   1023.9                   1024.5                   734.82                   861.01                   1116.1                   1123.9                   1124.0                   1123.1                   754.62                   911.77                   1134.3                   1138.7                   1137.6                   1136.5                   732.53                   853.51                   1111.3                   1119.9                   1120.3                   1119.5                   719.80                   802.17                   1005.8                   1019.9                   1025.1                   1025.7                   738.22                   870.82                   1120.7                   1127.6                   1127.4                   1126.5                   754.89                   911.51                   1134.3                   1138.6                   1137.6                   1136.5                   730.91                   846.44                   1104.6                   1114.3                   1115.1                   1114.3                   752.82                   906.21                   1134.3                   1138.9                   1138.0                   1136.9                   727.15                   823.73                   1072.3                   1085.4                   1087.7                   1087.3
18.000                   1.5000                   3.0000                   1.4000                   6000.0                   4000.0                   70.000                   739.26                   836.14                   1028.1                   1039.9                   1043.3                   1043.3                   758.51                   899.44                   1121.2                   1126.9                   1126.4                   1125.4                   786.81                   945.84                   1138.6                   1141.8                   1140.4                   1139.2                   755.49                   891.96                   1116.7                   1123.1                   1122.8                   1121.8                   738.91                   835.74                   1028.7                   1040.7                   1044.1                   1044.1                   762.96                   908.79                   1125.4                   1130.5                   1129.8                   1128.8                   786.85                   945.31                   1138.4                   1141.6                   1140.2                   1139.1                   753.24                   884.74                   1111.0                   1118.1                   1118.1                   1117.2                   783.33                   940.32                   1137.2                   1140.6                   1139.3                   1138.2                   748.04                   869.81                   1109.5                   1117.2                   1117.2                   1116.4
18.000                   1.5000                   3.0000                   1.4000                   6000.0                   4000.0                   75.000                   769.83                   871.93                   1048.4                   1057.8                   1059.8                   1059.5                   799.64                   932.00                   1125.9                   1130.3                   1129.4                   1128.4                   833.66                   974.89                   1144.1                   1146.4                   1144.7                   1143.5                   795.42                   924.98                   1121.5                   1126.4                   1125.6                   1124.6                   769.49                   871.58                   1048.8                   1058.4                   1060.5                   1060.1                   805.55                   940.67                   1130.2                   1134.1                   1133.0                   1131.9                   833.38                   974.26                   1143.8                   1146.2                   1144.5                   1143.3                   792.03                   918.21                   1116.1                   1121.6                   1121.1                   1120.1                   830.32                   970.44                   1142.5                   1145.0                   1143.4                   1142.2                   791.95                   917.34                   1128.8                   1134.0                   1133.2                   1132.2