% Model:              batchmodel_COIL_N_18_COIL_kr_3_COIL_kh_3_COIL_kturn_1.7_FUNZ_freq_10000_FUNZ_I_eff_1000.mph
% Version:            COMSOL 5.6.0.280
% Date:               Feb 2 2022, 09:01
% Table:              Tabella 1 - GRIGLIA_T
% COIL_N                 COIL_kr                  COIL_kh                  COIL_kturn               FUNZ_freq                FUNZ_I_eff               Time (s)                 Temperatura (degC), Punto: (0, 0)Temperatura (degC), Punto: (15, 0)Temperatura (degC), Punto: (28.051, 0)Temperatura (degC), Punto: (29.025, 0)Temperatura (degC), Punto: (29.61, 0)Temperatura (degC), Punto: (29.805, 0)Temperatura (degC), Punto: (0, 62.5)Temperatura (degC), Punto: (15, 62.5)Temperatura (degC), Punto: (28.051, 62.5)Temperatura (degC), Punto: (29.025, 62.5)Temperatura (degC), Punto: (29.61, 62.5)Temperatura (degC), Punto: (29.805, 62.5)Temperatura (degC), Punto: (0, 125)Temperatura (degC), Punto: (15, 125)Temperatura (degC), Punto: (28.051, 125)Temperatura (degC), Punto: (29.025, 125)Temperatura (degC), Punto: (29.61, 125)Temperatura (degC), Punto: (29.805, 125)Temperatura (degC), Punto: (0, 187.5)Temperatura (degC), Punto: (15, 187.5)Temperatura (degC), Punto: (28.051, 187.5)Temperatura (degC), Punto: (29.025, 187.5)Temperatura (degC), Punto: (29.61, 187.5)Temperatura (degC), Punto: (29.805, 187.5)Temperatura (degC), Punto: (0, 250)Temperatura (degC), Punto: (15, 250)Temperatura (degC), Punto: (28.051, 250)Temperatura (degC), Punto: (29.025, 250)Temperatura (degC), Punto: (29.61, 250)Temperatura (degC), Punto: (29.805, 250)Temperatura (degC), Punto: (0, 312.5)Temperatura (degC), Punto: (15, 312.5)Temperatura (degC), Punto: (28.051, 312.5)Temperatura (degC), Punto: (29.025, 312.5)Temperatura (degC), Punto: (29.61, 312.5)Temperatura (degC), Punto: (29.805, 312.5)Temperatura (degC), Punto: (0, 375)Temperatura (degC), Punto: (15, 375)Temperatura (degC), Punto: (28.051, 375)Temperatura (degC), Punto: (29.025, 375)Temperatura (degC), Punto: (29.61, 375)Temperatura (degC), Punto: (29.805, 375)Temperatura (degC), Punto: (0, 437.5)Temperatura (degC), Punto: (15, 437.5)Temperatura (degC), Punto: (28.051, 437.5)Temperatura (degC), Punto: (29.025, 437.5)Temperatura (degC), Punto: (29.61, 437.5)Temperatura (degC), Punto: (29.805, 437.5)Temperatura (degC), Punto: (0, 468.75)Temperatura (degC), Punto: (15, 468.75)Temperatura (degC), Punto: (28.051, 468.75)Temperatura (degC), Punto: (29.025, 468.75)Temperatura (degC), Punto: (29.61, 468.75)Temperatura (degC), Punto: (29.805, 468.75)Temperatura (degC), Punto: (0, 492.19)Temperatura (degC), Punto: (15, 492.19)Temperatura (degC), Punto: (28.051, 492.19)Temperatura (degC), Punto: (29.025, 492.19)Temperatura (degC), Punto: (29.61, 492.19)Temperatura (degC), Punto: (29.805, 492.19)
18.000                   3.0000                   3.0000                   1.7000                   10000                    1000.0                   0.0000                   20.000                   20.000                   20.000                   20.000                   20.002                   20.027                   20.000                   20.000                   20.000                   20.000                   20.002                   20.029                   20.000                   20.000                   20.000                   20.000                   20.002                   20.028                   20.000                   20.000                   20.000                   20.000                   20.002                   20.028                   20.000                   20.000                   20.000                   20.000                   20.002                   20.029                   20.000                   20.000                   20.000                   20.000                   20.002                   20.027                   20.000                   20.000                   20.000                   20.000                   20.002                   20.028                   20.000                   20.000                   20.000                   20.000                   20.002                   20.029                   20.000                   20.000                   20.000                   20.000                   20.002                   20.029                   20.000                   20.000                   20.000                   20.000                   20.002                   20.025
18.000                   3.0000                   3.0000                   1.7000                   10000                    1000.0                   5.0000                   21.012                   23.888                   38.769                   40.665                   41.904                   42.322                   20.963                   23.714                   38.582                   40.606                   41.900                   42.334                   20.965                   23.698                   38.362                   40.353                   41.621                   42.046                   20.963                   23.685                   38.222                   40.188                   41.444                   41.865                   20.969                   23.731                   38.651                   40.685                   41.983                   42.418                   20.996                   23.835                   38.560                   40.476                   41.718                   42.136                   20.963                   23.709                   38.544                   40.559                   41.844                   42.275                   20.989                   23.803                   38.875                   40.905                   42.198                   42.632                   21.063                   24.070                   39.573                   41.580                   42.893                   43.335                   21.287                   24.374                   38.108                   39.809                   40.923                   41.299
18.000                   3.0000                   3.0000                   1.7000                   10000                    1000.0                   10.000                   25.923                   31.643                   49.874                   51.857                   53.128                   53.555                   25.886                   31.621                   50.967                   53.128                   54.474                   54.917                   25.863                   31.546                   50.646                   52.772                   54.092                   54.527                   25.826                   31.464                   50.367                   52.469                   53.775                   54.207                   25.905                   31.665                   51.133                   53.311                   54.662                   55.108                   25.893                   31.586                   49.956                   51.970                   53.250                   53.676                   25.881                   31.605                   50.872                   53.018                   54.352                   54.793                   25.981                   31.789                   51.188                   53.338                   54.677                   55.120                   26.161                   32.101                   51.319                   53.441                   54.801                   55.247                   26.479                   32.266                   49.510                   51.291                   52.432                   52.813
18.000                   3.0000                   3.0000                   1.7000                   10000                    1000.0                   15.000                   32.722                   40.297                   60.799                   62.886                   64.193                   64.628                   32.767                   40.491                   62.296                   64.523                   65.893                   66.342                   32.683                   40.312                   61.801                   63.990                   65.335                   65.776                   32.604                   40.169                   61.455                   63.624                   64.958                   65.396                   32.804                   40.560                   62.504                   64.747                   66.124                   66.576                   32.695                   40.269                   61.015                   63.128                   64.445                   64.879                   32.757                   40.461                   62.160                   64.370                   65.730                   66.177                   32.932                   40.717                   62.530                   64.748                   66.115                   66.564                   33.159                   40.988                   62.462                   64.656                   66.032                   66.483                   33.444                   40.974                   60.308                   62.164                   63.322                   63.706
18.000                   3.0000                   3.0000                   1.7000                   10000                    1000.0                   20.000                   41.159                   49.659                   71.298                   73.448                   74.778                   75.217                   41.343                   50.080                   72.859                   75.110                   76.493                   76.946                   41.188                   49.810                   72.250                   74.464                   75.824                   76.269                   41.039                   49.581                   71.833                   74.034                   75.386                   75.829                   41.398                   50.176                   73.102                   75.370                   76.762                   77.218                   41.147                   49.663                   71.499                   73.668                   75.007                   75.447                   41.327                   50.038                   72.703                   74.940                   76.314                   76.764                   41.565                   50.347                   73.139                   75.389                   76.772                   77.225                   41.780                   50.544                   73.158                   75.423                   76.819                   77.270                   41.930                   50.305                   70.504                   72.398                   73.564                   73.948
18.000                   3.0000                   3.0000                   1.7000                   10000                    1000.0                   25.000                   50.297                   59.330                   81.642                   83.836                   85.184                   85.625                   50.626                   59.949                   83.226                   85.496                   86.891                   87.347                   50.414                   59.612                   82.548                   84.782                   86.155                   86.604                   50.155                   59.256                   82.011                   84.237                   85.605                   86.053                   50.693                   60.064                   83.500                   85.787                   87.193                   87.652                   50.299                   59.353                   81.795                   84.003                   85.361                   85.806                   50.608                   59.899                   83.062                   85.318                   86.705                   87.158                   50.890                   60.243                   83.545                   85.819                   87.216                   87.673                   51.052                   60.343                   83.607                   85.921                   87.333                   87.783                   51.040                   59.880                   80.503                   82.419                   83.589                   83.974
18.000                   3.0000                   3.0000                   1.7000                   10000                    1000.0                   30.000                   60.031                   69.263                   91.872                   94.091                   95.452                   95.897                   60.499                   70.040                   93.507                   95.796                   97.204                   97.663                   60.247                   69.668                   92.808                   95.063                   96.449                   96.903                   59.831                   69.132                   92.081                   94.329                   95.713                   96.165                   60.564                   70.160                   93.804                   96.112                   97.533                   97.997                   60.038                   69.285                   91.965                   94.200                   95.574                   96.024                   60.479                   69.987                   93.341                   95.618                   97.018                   97.475                   60.782                   70.343                   93.844                   96.138                   97.550                   98.011                   60.849                   70.319                   93.812                   96.147                   97.566                   98.017                   60.662                   69.648                   90.368                   92.293                   93.467                   93.853
18.000                   3.0000                   3.0000                   1.7000                   10000                    1000.0                   35.000                   69.764                   79.196                   102.10                   104.35                   105.72                   106.17                   70.371                   80.131                   103.79                   106.10                   107.52                   107.98                   70.081                   79.723                   103.07                   105.34                   106.74                   107.20                   69.507                   79.008                   102.15                   104.42                   105.82                   106.28                   70.434                   80.257                   104.11                   106.44                   107.87                   108.34                   69.778                   79.217                   102.14                   104.40                   105.79                   106.24                   70.351                   80.075                   103.62                   105.92                   107.33                   107.79                   70.675                   80.444                   104.14                   106.46                   107.88                   108.35                   70.647                   80.295                   104.02                   106.37                   107.80                   108.25                   70.285                   79.416                   100.23                   102.17                   103.35                   103.73
18.000                   3.0000                   3.0000                   1.7000                   10000                    1000.0                   40.000                   79.767                   89.300                   112.44                   114.71                   116.10                   116.55                   80.482                   90.349                   114.20                   116.53                   117.97                   118.43                   80.170                   89.923                   113.46                   115.76                   117.18                   117.64                   79.383                   88.969                   112.28                   114.57                   115.99                   116.45                   80.504                   90.437                   114.49                   116.84                   118.30                   118.77                   79.790                   89.326                   112.45                   114.74                   116.15                   116.61                   80.465                   90.295                   114.03                   116.35                   117.79                   118.25                   80.771                   90.641                   114.53                   116.87                   118.31                   118.78                   80.602                   90.328                   114.22                   116.59                   118.03                   118.48                   80.060                   89.235                   110.10                   112.03                   113.22                   113.60
18.000                   3.0000                   3.0000                   1.7000                   10000                    1000.0                   45.000                   90.006                   99.556                   122.88                   125.17                   126.58                   127.04                   90.802                   100.68                   124.71                   127.08                   128.53                   129.01                   90.482                   100.25                   123.98                   126.31                   127.75                   128.21                   89.435                   99.007                   122.45                   124.77                   126.20                   126.67                   90.748                   100.69                   124.94                   127.32                   128.80                   129.27                   90.041                   99.590                   122.89                   125.21                   126.63                   127.10                   90.791                   100.63                   124.56                   126.91                   128.36                   128.83                   91.046                   100.92                   124.99                   127.36                   128.83                   129.30                   90.696                   100.41                   124.41                   126.80                   128.25                   128.71                   89.969                   99.097                   119.95                   121.90                   123.08                   123.47
18.000                   3.0000                   3.0000                   1.7000                   10000                    1000.0                   50.000                   100.25                   109.81                   133.31                   135.64                   137.06                   137.52                   101.12                   111.01                   135.23                   137.63                   139.10                   139.58                   100.79                   110.57                   134.49                   136.85                   138.31                   138.78                   99.486                   109.04                   132.62                   134.97                   136.42                   136.89                   100.99                   110.94                   135.38                   137.80                   139.29                   139.78                   100.29                   109.85                   133.34                   135.68                   137.12                   137.59                   101.12                   110.97                   135.09                   137.47                   138.94                   139.42                   101.32                   111.20                   135.46                   137.86                   139.34                   139.82                   100.79                   110.49                   134.60                   137.00                   138.47                   138.94                   99.877                   108.96                   129.81                   131.76                   132.95                   133.34
18.000                   3.0000                   3.0000                   1.7000                   10000                    1000.0                   55.000                   110.49                   120.07                   143.75                   146.10                   147.54                   148.01                   111.44                   121.33                   145.75                   148.18                   149.67                   150.16                   111.11                   120.90                   145.01                   147.40                   148.88                   149.35                   109.54                   119.08                   142.79                   145.17                   146.63                   147.11                   111.24                   121.20                   145.83                   148.28                   149.79                   150.28                   110.54                   120.12                   143.78                   146.15                   147.61                   148.08                   111.44                   121.30                   145.62                   148.03                   149.52                   150.00                   111.60                   121.48                   145.92                   148.35                   149.85                   150.34                   110.88                   120.57                   144.79                   147.21                   148.69                   149.16                   109.79                   118.82                   139.67                   141.62                   142.82                   143.21
18.000                   3.0000                   3.0000                   1.7000                   10000                    1000.0                   60.000                   120.72                   130.32                   154.19                   156.56                   158.02                   158.49                   121.76                   131.66                   156.27                   158.72                   160.24                   160.73                   121.42                   131.22                   155.53                   157.95                   159.44                   159.92                   119.59                   129.12                   152.97                   155.37                   156.85                   157.33                   121.48                   131.45                   156.28                   158.76                   160.29                   160.79                   120.79                   130.38                   154.23                   156.62                   158.10                   158.58                   121.77                   131.64                   156.14                   158.59                   160.10                   160.58                   121.87                   131.76                   156.38                   158.84                   160.36                   160.85                   120.98                   130.65                   154.98                   157.42                   158.91                   159.39                   119.69                   128.68                   149.52                   151.48                   152.69                   153.08
18.000                   3.0000                   3.0000                   1.7000                   10000                    1000.0                   65.000                   131.02                   140.66                   164.75                   167.15                   168.63                   169.11                   132.12                   142.06                   166.91                   169.39                   170.93                   171.43                   131.77                   141.61                   166.15                   168.60                   170.12                   170.61                   129.70                   139.25                   163.30                   165.72                   167.23                   167.71                   131.75                   141.75                   166.81                   169.33                   170.88                   171.38                   131.10                   140.73                   164.80                   167.22                   168.72                   169.20                   132.14                   142.04                   166.79                   169.27                   170.80                   171.29                   132.17                   142.10                   166.95                   169.45                   170.99                   171.48                   131.07                   140.77                   165.28                   167.75                   169.26                   169.74                   129.58                   138.55                   159.41                   161.38                   162.58                   162.98
18.000                   3.0000                   3.0000                   1.7000                   10000                    1000.0                   70.000                   141.36                   151.07                   175.42                   177.85                   179.35                   179.84                   142.51                   152.51                   177.65                   180.17                   181.73                   182.23                   142.15                   152.05                   176.87                   179.36                   180.89                   181.39                   139.87                   149.47                   173.76                   176.22                   177.74                   178.23                   142.03                   152.09                   177.43                   179.98                   181.55                   182.06                   141.45                   151.14                   175.49                   177.94                   179.46                   179.95                   142.54                   152.51                   177.54                   180.06                   181.61                   182.11                   142.49                   152.48                   177.62                   180.14                   181.71                   182.21                   141.16                   150.91                   175.68                   178.18                   179.71                   180.20                   139.45                   148.41                   169.32                   171.29                   172.51                   172.90
18.000                   3.0000                   3.0000                   1.7000                   10000                    1000.0                   75.000                   151.71                   161.48                   186.09                   188.56                   190.08                   190.57                   152.91                   162.97                   188.39                   190.95                   192.53                   193.04                   152.54                   162.50                   187.59                   190.11                   191.67                   192.17                   150.05                   159.70                   184.23                   186.72                   188.26                   188.76                   152.32                   162.43                   188.05                   190.63                   192.23                   192.74                   151.80                   161.56                   186.17                   188.66                   190.20                   190.69                   152.95                   162.97                   188.30                   190.85                   192.42                   192.93                   152.81                   162.86                   188.28                   190.84                   192.42                   192.93                   151.26                   161.05                   186.07                   188.61                   190.17                   190.67                   149.32                   158.27                   179.23                   181.21                   182.43                   182.83