% Model:              batchmodel_COIL_N_18_COIL_kr_3_COIL_kh_3_COIL_kturn_1.4_FUNZ_freq_6000_FUNZ_I_eff_4000.mph
% Version:            COMSOL 5.6.0.280
% Date:               Feb 2 2022, 09:16
% Table:              Tabella 1 - GRIGLIA_T
% COIL_N                 COIL_kr                  COIL_kh                  COIL_kturn               FUNZ_freq                FUNZ_I_eff               Time (s)                 Temperatura (degC), Punto: (0, 0)Temperatura (degC), Punto: (15, 0)Temperatura (degC), Punto: (27.483, 0)Temperatura (degC), Punto: (28.742, 0)Temperatura (degC), Punto: (29.497, 0)Temperatura (degC), Punto: (29.748, 0)Temperatura (degC), Punto: (0, 62.5)Temperatura (degC), Punto: (15, 62.5)Temperatura (degC), Punto: (27.483, 62.5)Temperatura (degC), Punto: (28.742, 62.5)Temperatura (degC), Punto: (29.497, 62.5)Temperatura (degC), Punto: (29.748, 62.5)Temperatura (degC), Punto: (0, 125)Temperatura (degC), Punto: (15, 125)Temperatura (degC), Punto: (27.483, 125)Temperatura (degC), Punto: (28.742, 125)Temperatura (degC), Punto: (29.497, 125)Temperatura (degC), Punto: (29.748, 125)Temperatura (degC), Punto: (0, 187.5)Temperatura (degC), Punto: (15, 187.5)Temperatura (degC), Punto: (27.483, 187.5)Temperatura (degC), Punto: (28.742, 187.5)Temperatura (degC), Punto: (29.497, 187.5)Temperatura (degC), Punto: (29.748, 187.5)Temperatura (degC), Punto: (0, 250)Temperatura (degC), Punto: (15, 250)Temperatura (degC), Punto: (27.483, 250)Temperatura (degC), Punto: (28.742, 250)Temperatura (degC), Punto: (29.497, 250)Temperatura (degC), Punto: (29.748, 250)Temperatura (degC), Punto: (0, 312.5)Temperatura (degC), Punto: (15, 312.5)Temperatura (degC), Punto: (27.483, 312.5)Temperatura (degC), Punto: (28.742, 312.5)Temperatura (degC), Punto: (29.497, 312.5)Temperatura (degC), Punto: (29.748, 312.5)Temperatura (degC), Punto: (0, 375)Temperatura (degC), Punto: (15, 375)Temperatura (degC), Punto: (27.483, 375)Temperatura (degC), Punto: (28.742, 375)Temperatura (degC), Punto: (29.497, 375)Temperatura (degC), Punto: (29.748, 375)Temperatura (degC), Punto: (0, 437.5)Temperatura (degC), Punto: (15, 437.5)Temperatura (degC), Punto: (27.483, 437.5)Temperatura (degC), Punto: (28.742, 437.5)Temperatura (degC), Punto: (29.497, 437.5)Temperatura (degC), Punto: (29.748, 437.5)Temperatura (degC), Punto: (0, 468.75)Temperatura (degC), Punto: (15, 468.75)Temperatura (degC), Punto: (27.483, 468.75)Temperatura (degC), Punto: (28.742, 468.75)Temperatura (degC), Punto: (29.497, 468.75)Temperatura (degC), Punto: (29.748, 468.75)Temperatura (degC), Punto: (0, 492.19)Temperatura (degC), Punto: (15, 492.19)Temperatura (degC), Punto: (27.483, 492.19)Temperatura (degC), Punto: (28.742, 492.19)Temperatura (degC), Punto: (29.497, 492.19)Temperatura (degC), Punto: (29.748, 492.19)
18.000                   3.0000                   3.0000                   1.4000                   6000.0                   4000.0                   0.0000                   20.000                   20.000                   20.000                   20.000                   20.076                   20.211                   20.000                   20.000                   20.000                   20.000                   20.077                   20.213                   20.000                   20.000                   20.000                   20.000                   20.077                   20.214                   20.000                   20.000                   20.000                   20.000                   20.077                   20.213                   20.000                   20.000                   20.000                   20.000                   20.076                   20.211                   20.000                   20.000                   20.000                   20.000                   20.077                   20.213                   20.000                   20.000                   20.000                   20.000                   20.077                   20.214                   20.000                   20.000                   20.000                   20.000                   20.077                   20.214                   20.000                   20.000                   20.000                   20.000                   20.082                   20.222                   20.000                   20.000                   20.000                   20.000                   20.087                   20.233
18.000                   3.0000                   3.0000                   1.4000                   6000.0                   4000.0                   5.0000                   26.735                   53.592                   189.11                   214.58                   230.99                   234.61                   26.604                   53.221                   192.10                   218.56                   235.22                   239.19                   26.578                   53.104                   191.58                   218.03                   234.38                   238.37                   26.530                   52.743                   188.24                   213.93                   229.90                   233.91                   26.627                   53.211                   191.61                   217.69                   234.23                   238.32                   26.576                   53.106                   191.02                   216.97                   232.75                   236.71                   26.558                   52.916                   189.72                   215.31                   230.83                   234.76                   26.764                   54.056                   195.88                   222.43                   238.62                   242.65                   27.020                   55.199                   202.89                   230.76                   248.02                   252.30                   29.194                   62.543                   212.98                   240.50                   257.40                   261.31
18.000                   3.0000                   3.0000                   1.4000                   6000.0                   4000.0                   10.000                   71.454                   132.36                   346.51                   384.90                   407.44                   412.44                   71.286                   132.27                   346.32                   385.12                   408.22                   413.38                   71.133                   132.03                   345.17                   383.94                   406.89                   412.04                   70.756                   130.97                   341.93                   380.64                   403.84                   409.03                   71.112                   131.94                   345.13                   383.63                   406.53                   411.64                   71.299                   132.25                   345.95                   384.99                   408.32                   413.55                   70.965                   131.75                   344.93                   383.17                   406.03                   411.21                   72.543                   134.82                   352.05                   391.48                   414.91                   420.11                   74.617                   138.18                   360.08                   400.54                   424.34                   429.63                   90.309                   155.96                   368.03                   403.39                   424.10                   428.72
18.000                   3.0000                   3.0000                   1.4000                   6000.0                   4000.0                   15.000                   145.53                   228.97                   508.38                   557.40                   585.03                   590.79                   145.56                   229.25                   509.82                   559.77                   589.04                   595.30                   145.13                   228.35                   505.11                   556.25                   585.07                   591.00                   144.52                   227.41                   503.95                   553.86                   582.38                   588.42                   145.32                   229.33                   515.15                   567.29                   596.41                   602.33                   145.75                   229.63                   511.68                   562.56                   591.28                   597.22                   145.03                   228.33                   504.62                   552.76                   580.75                   586.92                   147.98                   232.71                   515.68                   566.81                   595.39                   601.23                   151.96                   237.08                   521.70                   573.01                   601.69                   607.56                   180.21                   261.05                   517.00                   558.90                   582.82                   587.83
18.000                   3.0000                   3.0000                   1.4000                   6000.0                   4000.0                   20.000                   229.78                   328.76                   653.48                   712.04                   743.94                   750.26                   230.16                   329.78                   659.45                   720.27                   755.39                   762.50                   229.29                   327.83                   648.80                   709.64                   742.67                   749.12                   228.71                   327.37                   651.07                   711.49                   744.81                   751.54                   230.03                   330.16                   663.72                   726.30                   759.52                   765.97                   230.41                   330.01                   658.19                   719.20                   752.16                   758.68                   229.39                   328.11                   649.24                   705.51                   737.86                   744.84                   233.08                   332.85                   659.07                   719.59                   751.52                   757.77                   238.06                   337.06                   660.46                   720.11                   752.52                   758.88                   271.36                   363.17                   646.88                   694.18                   720.67                   725.97
18.000                   3.0000                   3.0000                   1.4000                   6000.0                   4000.0                   25.000                   315.75                   421.63                   770.38                   844.69                   883.10                   890.10                   316.52                   423.24                   777.43                   853.43                   892.17                   899.18                   315.29                   420.91                   769.41                   844.07                   882.73                   889.77                   314.91                   420.75                   770.09                   844.73                   883.33                   890.35                   316.53                   423.55                   778.80                   854.85                   893.50                   900.48                   316.69                   423.16                   776.12                   851.83                   890.52                   897.53                   315.61                   421.41                   770.62                   845.33                   884.00                   891.04                   319.23                   425.61                   778.74                   854.84                   893.56                   900.56                   323.83                   428.33                   771.94                   845.18                   883.04                   889.94                   348.18                   446.52                   727.86                   778.86                   807.17                   812.66
18.000                   3.0000                   3.0000                   1.4000                   6000.0                   4000.0                   30.000                   396.07                   505.39                   894.37                   972.43                   1007.5                   1013.3                   397.14                   507.30                   902.77                   981.20                   1015.8                   1021.5                   395.77                   505.06                   895.08                   973.45                   1008.6                   1014.4                   395.54                   504.92                   894.10                   972.18                   1007.3                   1013.1                   397.20                   507.42                   901.77                   979.88                   1014.5                   1020.2                   397.22                   507.08                   900.75                   979.07                   1013.8                   1019.5                   396.24                   505.64                   895.63                   973.74                   1008.8                   1014.5                   399.54                   509.36                   904.24                   982.35                   1016.8                   1022.4                   402.96                   510.08                   891.14                   967.97                   1002.8                   1008.6                   419.25                   519.19                   808.64                   865.40                   894.52                   899.82
18.000                   3.0000                   3.0000                   1.4000                   6000.0                   4000.0                   35.000                   470.08                   580.35                   949.90                   1000.6                   1022.2                   1025.6                   471.40                   583.08                   1003.1                   1059.1                   1075.8                   1077.6                   470.00                   580.44                   947.55                   996.08                   1016.8                   1020.1                   469.82                   580.16                   953.15                   1005.4                   1027.3                   1030.7                   471.45                   583.02                   1016.9                   1073.9                   1089.7                   1091.2                   471.40                   582.74                   1008.8                   1066.0                   1082.5                   1084.2                   470.54                   580.89                   950.68                   1001.5                   1023.2                   1026.6                   473.50                   584.18                   946.93                   994.18                   1014.7                   1018.0                   475.39                   583.16                   943.43                   992.97                   1014.7                   1018.2                   485.09                   583.80                   879.27                   930.78                   955.71                   960.06
18.000                   3.0000                   3.0000                   1.4000                   6000.0                   4000.0                   40.000                   534.61                   638.80                   944.98                   979.50                   995.48                   998.17                   536.64                   646.27                   1060.7                   1094.6                   1102.7                   1103.0                   534.87                   639.89                   945.64                   977.42                   991.77                   994.17                   534.51                   638.97                   950.30                   985.26                   1001.2                   1003.9                   536.51                   645.96                   1072.9                   1106.0                   1113.6                   1113.8                   536.48                   645.55                   1059.2                   1093.7                   1102.1                   1102.5                   535.23                   639.57                   949.59                   984.43                   1000.4                   1003.0                   538.10                   643.19                   953.61                   985.85                   1000.2                   1002.6                   538.73                   642.51                   968.73                   1002.9                   1017.0                   1019.2                   543.08                   637.03                   923.37                   964.10                   983.56                   986.89
18.000                   3.0000                   3.0000                   1.4000                   6000.0                   4000.0                   45.000                   589.68                   684.67                   954.71                   982.25                   995.15                   997.31                   592.91                   697.96                   1084.8                   1107.7                   1112.3                   1112.2                   590.44                   687.19                   962.05                   986.89                   997.96                   999.76                   589.70                   685.32                   961.48                   988.68                   1001.1                   1003.1                   592.45                   696.96                   1089.2                   1112.6                   1117.4                   1117.2                   592.47                   696.32                   1076.9                   1101.6                   1107.0                   1106.9                   590.38                   685.79                   961.97                   989.44                   1002.0                   1004.0                   593.27                   690.15                   970.08                   994.77                   1005.5                   1007.2                   593.44                   691.47                   1003.0                   1029.2                   1038.1                   1039.1                   593.38                   681.48                   950.85                   981.40                   995.73                   998.14
18.000                   3.0000                   3.0000                   1.4000                   6000.0                   4000.0                   50.000                   637.13                   722.84                   970.37                   992.59                   1002.7                   1004.4                   641.57                   741.72                   1095.8                   1112.2                   1114.9                   1114.4                   638.41                   726.85                   985.28                   1005.4                   1013.7                   1014.9                   637.27                   724.05                   980.05                   1001.9                   1011.3                   1012.8                   640.73                   739.65                   1096.2                   1113.7                   1116.8                   1116.4                   640.81                   738.88                   1086.8                   1105.3                   1108.9                   1108.5                   637.87                   724.34                   980.47                   1002.7                   1012.3                   1013.8                   640.76                   729.46                   993.17                   1013.4                   1021.3                   1022.4                   641.04                   733.46                   1041.8                   1062.6                   1067.9                   1068.0                   637.55                   719.81                   983.47                   1008.3                   1018.7                   1020.2
18.000                   3.0000                   3.0000                   1.4000                   6000.0                   4000.0                   55.000                   672.47                   755.15                   992.87                   1011.6                   1019.2                   1020.2                   677.53                   779.98                   1097.6                   1110.7                   1112.5                   1111.9                   674.11                   761.61                   1016.4                   1034.0                   1039.9                   1040.5                   672.74                   757.30                   1005.4                   1024.2                   1031.1                   1031.9                   676.39                   776.07                   1095.4                   1109.8                   1112.0                   1111.4                   676.53                   775.45                   1089.2                   1104.1                   1106.6                   1106.1                   673.23                   757.41                   1005.5                   1024.6                   1031.7                   1032.5                   675.91                   763.88                   1022.8                   1040.6                   1046.3                   1046.7                   676.70                   771.05                   1061.3                   1077.5                   1080.8                   1080.5                   672.21                   757.63                   1043.5                   1062.3                   1067.9                   1068.2
18.000                   3.0000                   3.0000                   1.4000                   6000.0                   4000.0                   60.000                   701.84                   788.25                   1018.6                   1034.4                   1039.7                   1040.1                   707.14                   816.46                   1097.6                   1108.2                   1109.3                   1108.6                   703.66                   796.88                   1044.5                   1059.5                   1063.3                   1063.2                   702.18                   791.20                   1031.3                   1047.2                   1051.8                   1052.0                   705.78                   811.07                   1093.6                   1105.3                   1106.8                   1106.2                   705.97                   810.77                   1090.1                   1102.0                   1103.7                   1103.1                   702.56                   791.26                   1031.2                   1047.3                   1052.1                   1052.4                   704.96                   798.61                   1048.9                   1064.0                   1067.6                   1067.5                   706.25                   808.16                   1074.5                   1086.9                   1088.8                   1088.3                   701.86                   799.50                   1093.2                   1106.3                   1108.2                   1107.6
18.000                   3.0000                   3.0000                   1.4000                   6000.0                   4000.0                   65.000                   725.32                   823.19                   1047.5                   1061.0                   1064.2                   1064.0                   730.45                   851.27                   1096.6                   1105.2                   1105.7                   1104.9                   727.13                   833.40                   1067.3                   1079.0                   1081.0                   1080.6                   725.62                   826.69                   1056.8                   1069.6                   1072.3                   1072.0                   728.94                   844.99                   1091.5                   1101.0                   1101.9                   1101.2                   729.18                   845.22                   1090.2                   1099.8                   1100.7                   1100.0                   725.92                   826.85                   1056.8                   1069.8                   1072.5                   1072.2                   727.98                   834.34                   1069.1                   1080.8                   1082.8                   1082.3                   729.71                   845.16                   1083.3                   1092.8                   1093.8                   1093.1                   726.47                   846.52                   1123.9                   1131.9                   1131.9                   1130.9
18.000                   3.0000                   3.0000                   1.4000                   6000.0                   4000.0                   70.000                   746.08                   858.63                   1067.0                   1077.4                   1079.2                   1078.7                   752.44                   882.30                   1097.8                   1104.9                   1105.0                   1104.1                   748.54                   868.34                   1080.5                   1089.5                   1090.4                   1089.7                   746.47                   861.83                   1073.1                   1083.0                   1084.4                   1083.8                   750.34                   876.18                   1093.2                   1100.9                   1101.3                   1100.5                   750.77                   876.93                   1093.0                   1100.8                   1101.1                   1100.3                   746.84                   862.17                   1073.4                   1083.3                   1084.7                   1084.2                   749.28                   868.67                   1080.8                   1089.9                   1090.8                   1090.1                   752.31                   879.66                   1090.5                   1098.0                   1098.3                   1097.5                   751.58                   896.07                   1142.9                   1148.0                   1147.0                   1145.9
18.000                   3.0000                   3.0000                   1.4000                   6000.0                   4000.0                   75.000                   772.00                   892.85                   1082.3                   1090.0                   1090.6                   1089.9                   780.01                   911.77                   1100.3                   1105.9                   1105.6                   1104.7                   775.50                   901.56                   1091.1                   1097.8                   1097.9                   1097.1                   772.62                   895.58                   1086.1                   1093.4                   1093.8                   1093.0                   777.13                   906.16                   1096.3                   1102.4                   1102.3                   1101.4                   777.87                   907.30                   1096.9                   1103.0                   1102.8                   1101.9                   773.17                   896.14                   1086.6                   1093.9                   1094.3                   1093.5                   776.21                   901.51                   1090.6                   1097.3                   1097.4                   1096.6                   781.64                   912.81                   1097.7                   1103.3                   1103.0                   1102.1                   787.13                   943.54                   1159.2                   1162.2                   1160.5                   1159.3