% Model:              batchmodel_COIL_N_18_COIL_kr_2.25_COIL_kh_3_COIL_kturn_1.4_FUNZ_freq_6000_FUNZ_I_eff_4000.mph
% Version:            COMSOL 5.6.0.280
% Date:               Feb 2 2022, 01:44
% Table:              Tabella 1 - GRIGLIA_T
% COIL_N                 COIL_kr                  COIL_kh                  COIL_kturn               FUNZ_freq                FUNZ_I_eff               Time (s)                 Temperatura (degC), Punto: (0, 0)Temperatura (degC), Punto: (15, 0)Temperatura (degC), Punto: (27.483, 0)Temperatura (degC), Punto: (28.742, 0)Temperatura (degC), Punto: (29.497, 0)Temperatura (degC), Punto: (29.748, 0)Temperatura (degC), Punto: (0, 62.5)Temperatura (degC), Punto: (15, 62.5)Temperatura (degC), Punto: (27.483, 62.5)Temperatura (degC), Punto: (28.742, 62.5)Temperatura (degC), Punto: (29.497, 62.5)Temperatura (degC), Punto: (29.748, 62.5)Temperatura (degC), Punto: (0, 125)Temperatura (degC), Punto: (15, 125)Temperatura (degC), Punto: (27.483, 125)Temperatura (degC), Punto: (28.742, 125)Temperatura (degC), Punto: (29.497, 125)Temperatura (degC), Punto: (29.748, 125)Temperatura (degC), Punto: (0, 187.5)Temperatura (degC), Punto: (15, 187.5)Temperatura (degC), Punto: (27.483, 187.5)Temperatura (degC), Punto: (28.742, 187.5)Temperatura (degC), Punto: (29.497, 187.5)Temperatura (degC), Punto: (29.748, 187.5)Temperatura (degC), Punto: (0, 250)Temperatura (degC), Punto: (15, 250)Temperatura (degC), Punto: (27.483, 250)Temperatura (degC), Punto: (28.742, 250)Temperatura (degC), Punto: (29.497, 250)Temperatura (degC), Punto: (29.748, 250)Temperatura (degC), Punto: (0, 312.5)Temperatura (degC), Punto: (15, 312.5)Temperatura (degC), Punto: (27.483, 312.5)Temperatura (degC), Punto: (28.742, 312.5)Temperatura (degC), Punto: (29.497, 312.5)Temperatura (degC), Punto: (29.748, 312.5)Temperatura (degC), Punto: (0, 375)Temperatura (degC), Punto: (15, 375)Temperatura (degC), Punto: (27.483, 375)Temperatura (degC), Punto: (28.742, 375)Temperatura (degC), Punto: (29.497, 375)Temperatura (degC), Punto: (29.748, 375)Temperatura (degC), Punto: (0, 437.5)Temperatura (degC), Punto: (15, 437.5)Temperatura (degC), Punto: (27.483, 437.5)Temperatura (degC), Punto: (28.742, 437.5)Temperatura (degC), Punto: (29.497, 437.5)Temperatura (degC), Punto: (29.748, 437.5)Temperatura (degC), Punto: (0, 468.75)Temperatura (degC), Punto: (15, 468.75)Temperatura (degC), Punto: (27.483, 468.75)Temperatura (degC), Punto: (28.742, 468.75)Temperatura (degC), Punto: (29.497, 468.75)Temperatura (degC), Punto: (29.748, 468.75)Temperatura (degC), Punto: (0, 492.19)Temperatura (degC), Punto: (15, 492.19)Temperatura (degC), Punto: (27.483, 492.19)Temperatura (degC), Punto: (28.742, 492.19)Temperatura (degC), Punto: (29.497, 492.19)Temperatura (degC), Punto: (29.748, 492.19)
18.000                   2.2500                   3.0000                   1.4000                   6000.0                   4000.0                   0.0000                   20.000                   20.000                   20.000                   20.000                   20.078                   20.216                   20.000                   20.000                   20.000                   20.000                   20.082                   20.224                   20.000                   20.000                   20.000                   20.000                   20.085                   20.229                   20.000                   20.000                   20.000                   20.000                   20.082                   20.223                   20.000                   20.000                   20.000                   20.000                   20.078                   20.216                   20.000                   20.000                   20.000                   20.000                   20.083                   20.225                   20.000                   20.000                   20.000                   20.000                   20.085                   20.229                   20.000                   20.000                   20.000                   20.000                   20.082                   20.223                   20.000                   20.000                   20.000                   20.000                   20.088                   20.234                   20.000                   20.000                   20.000                   20.000                   20.088                   20.236
18.000                   2.2500                   3.0000                   1.4000                   6000.0                   4000.0                   5.0000                   27.755                   55.853                   207.41                   237.41                   256.14                   260.66                   27.947                   56.988                   213.58                   244.47                   263.58                   268.17                   28.206                   58.259                   220.20                   252.17                   271.98                   276.77                   28.024                   57.373                   215.26                   246.60                   266.40                   271.24                   27.707                   55.780                   207.13                   236.77                   254.99                   259.55                   28.039                   57.532                   217.56                   249.44                   269.27                   274.09                   28.206                   58.266                   220.65                   252.60                   272.43                   277.30                   28.034                   57.436                   215.81                   247.27                   266.82                   271.52                   28.253                   58.164                   221.87                   254.96                   275.72                   280.69                   33.907                   67.474                   226.18                   256.15                   274.45                   278.95
18.000                   2.2500                   3.0000                   1.4000                   6000.0                   4000.0                   10.000                   76.118                   140.91                   368.47                   410.20                   435.37                   440.81                   77.203                   143.67                   377.19                   419.32                   444.71                   450.34                   78.210                   145.64                   379.50                   420.18                   444.26                   449.89                   77.730                   144.89                   382.57                   425.93                   451.87                   457.53                   76.188                   141.32                   370.13                   410.63                   434.28                   439.85                   77.743                   144.93                   379.78                   421.05                   445.97                   451.75                   78.119                   145.20                   374.50                   413.68                   436.53                   442.06                   77.781                   144.73                   377.66                   419.40                   444.73                   450.44                   79.649                   148.03                   389.21                   432.53                   458.41                   464.19                   96.128                   166.50                   382.48                   418.34                   439.23                   444.04
18.000                   2.2500                   3.0000                   1.4000                   6000.0                   4000.0                   15.000                   154.34                   239.28                   510.98                   558.49                   585.32                   591.01                   156.45                   243.31                   523.09                   571.88                   599.49                   605.34                   157.85                   245.36                   527.91                   578.17                   607.00                   612.87                   157.45                   244.81                   524.12                   571.60                   598.69                   604.55                   154.80                   240.25                   513.47                   560.95                   588.31                   594.01                   157.45                   244.89                   526.81                   576.50                   604.92                   610.75                   157.55                   244.59                   525.97                   576.39                   605.43                   611.32                   157.61                   244.73                   524.69                   574.09                   601.99                   607.80                   161.46                   249.92                   538.85                   590.89                   620.38                   626.36                   179.18                   265.85                   522.65                   565.83                   590.96                   596.19
18.000                   2.2500                   3.0000                   1.4000                   6000.0                   4000.0                   20.000                   240.10                   336.82                   647.70                   706.28                   738.50                   744.90                   242.85                   341.32                   658.38                   718.03                   750.78                   757.31                   244.32                   343.23                   661.36                   721.62                   754.75                   761.35                   243.80                   342.07                   656.45                   715.53                   747.98                   754.44                   240.75                   337.66                   648.54                   707.02                   739.19                   745.59                   243.96                   342.67                   659.97                   719.81                   752.70                   759.25                   243.93                   342.63                   661.19                   721.53                   754.68                   761.27                   244.29                   342.67                   658.37                   717.86                   750.57                   757.09                   249.33                   348.76                   668.62                   728.81                   761.99                   768.56                   264.95                   361.53                   644.51                   693.33                   720.47                   725.92
18.000                   2.2500                   3.0000                   1.4000                   6000.0                   4000.0                   25.000                   325.13                   429.34                   764.96                   836.75                   876.05                   883.45                   327.99                   433.42                   777.08                   852.04                   892.76                   900.44                   329.44                   435.29                   781.16                   857.79                   898.52                   906.12                   328.66                   433.80                   778.69                   854.76                   895.34                   902.98                   325.70                   429.83                   764.46                   836.10                   875.91                   883.37                   329.01                   434.55                   778.33                   853.84                   894.35                   901.99                   329.05                   434.77                   779.39                   854.90                   895.88                   903.57                   329.49                   434.67                   776.97                   851.62                   892.62                   900.30                   334.83                   440.32                   783.12                   857.75                   898.17                   905.81                   349.28                   451.43                   744.02                   800.01                   831.19                   837.12
18.000                   2.2500                   3.0000                   1.4000                   6000.0                   4000.0                   30.000                   404.51                   511.75                   882.00                   956.16                   990.18                   995.95                   407.17                   515.83                   906.26                   982.03                   1015.0                   1020.3                   408.60                   517.47                   900.16                   974.43                   1007.7                   1013.2                   407.65                   516.28                   905.95                   980.95                   1013.7                   1019.1                   404.88                   511.93                   880.74                   954.76                   988.82                   994.60                   408.05                   516.84                   910.96                   987.62                   1020.3                   1025.5                   408.27                   517.25                   904.51                   978.85                   1011.7                   1017.2                   408.58                   516.70                   897.94                   973.10                   1007.0                   1012.6                   413.50                   521.53                   905.71                   979.62                   1012.5                   1018.0                   425.58                   528.37                   831.45                   890.20                   919.47                   924.69
18.000                   2.2500                   3.0000                   1.4000                   6000.0                   4000.0                   35.000                   475.73                   581.74                   922.04                   973.30                   996.98                   1001.0                   478.70                   589.45                   1009.5                   1062.6                   1078.0                   1079.6                   479.95                   588.10                   915.44                   957.12                   976.19                   979.44                   479.10                   589.60                   998.24                   1050.2                   1066.2                   1068.0                   475.93                   581.83                   925.90                   978.62                   1002.9                   1006.9                   479.53                   590.76                   1031.6                   1083.7                   1097.5                   1098.7                   479.81                   589.56                   948.48                   991.41                   1009.2                   1012.0                   479.60                   586.95                   936.89                   987.81                   1010.8                   1014.6                   484.19                   593.01                   965.24                   1013.4                   1031.8                   1034.5                   491.86                   592.05                   893.46                   943.59                   967.65                   971.82
18.000                   2.2500                   3.0000                   1.4000                   6000.0                   4000.0                   40.000                   537.15                   636.21                   937.79                   977.86                   996.82                   1000.0                   541.73                   651.24                   1071.2                   1104.6                   1112.3                   1112.6                   542.34                   644.54                   932.82                   963.38                   977.53                   979.93                   541.95                   650.73                   1060.6                   1094.7                   1103.1                   1103.5                   537.21                   636.38                   945.20                   987.03                   1006.6                   1009.9                   542.53                   652.49                   1078.9                   1111.2                   1118.3                   1118.4                   542.54                   648.05                   980.97                   1013.8                   1026.1                   1027.7                   541.31                   643.04                   958.68                   995.09                   1011.1                   1013.6                   546.35                   652.67                   1028.7                   1064.3                   1074.6                   1075.5                   549.11                   643.87                   943.73                   987.20                   1007.4                   1010.7
18.000                   2.2500                   3.0000                   1.4000                   6000.0                   4000.0                   45.000                   591.13                   681.52                   952.36                   984.46                   999.73                   1002.3                   597.71                   703.46                   1096.4                   1117.7                   1121.8                   1121.5                   597.51                   691.94                   958.26                   982.85                   994.03                   995.87                   597.67                   702.40                   1090.5                   1113.0                   1117.5                   1117.3                   591.07                   681.74                   959.81                   993.21                   1008.9                   1011.4                   598.38                   703.82                   1088.9                   1110.8                   1115.2                   1115.0                   598.00                   696.84                   1010.7                   1037.9                   1046.9                   1047.8                   595.81                   690.64                   988.13                   1016.0                   1026.6                   1028.0                   601.51                   703.28                   1065.6                   1090.3                   1096.0                   1096.1                   599.85                   690.28                   1033.7                   1070.1                   1080.6                   1081.5
18.000                   2.2500                   3.0000                   1.4000                   6000.0                   4000.0                   50.000                   636.71                   718.45                   966.45                   991.51                   1003.2                   1005.1                   645.00                   746.58                   1104.3                   1119.8                   1122.2                   1121.6                   644.02                   730.76                   986.83                   1007.1                   1015.5                   1016.7                   644.70                   745.08                   1101.7                   1118.0                   1120.6                   1120.1                   636.54                   718.61                   971.64                   997.40                   1009.2                   1011.2                   645.38                   745.27                   1091.7                   1108.7                   1111.7                   1111.3                   644.66                   736.58                   1038.4                   1060.7                   1067.0                   1067.3                   641.92                   730.24                   1022.5                   1045.4                   1052.5                   1053.0                   648.06                   744.94                   1078.7                   1096.9                   1100.6                   1100.3                   643.88                   733.92                   1102.1                   1121.9                   1125.3                   1124.9
18.000                   2.2500                   3.0000                   1.4000                   6000.0                   4000.0                   55.000                   671.94                   750.21                   985.69                   1005.8                   1014.5                   1015.8                   680.84                   785.40                   1104.2                   1116.5                   1117.9                   1117.3                   679.46                   766.74                   1021.6                   1039.2                   1044.9                   1045.3                   680.39                   783.35                   1102.8                   1115.7                   1117.4                   1116.8                   671.73                   750.24                   989.27                   1009.9                   1018.6                   1019.9                   680.89                   782.14                   1090.7                   1104.5                   1106.6                   1106.1                   680.06                   772.96                   1057.8                   1075.3                   1079.4                   1079.3                   677.34                   766.35                   1048.5                   1066.7                   1071.2                   1071.2                   683.24                   782.94                   1082.8                   1097.1                   1099.5                   1099.1                   679.73                   781.41                   1125.8                   1138.3                   1139.5                   1138.7
18.000                   2.2500                   3.0000                   1.4000                   6000.0                   4000.0                   60.000                   701.03                   782.84                   1010.4                   1027.0                   1033.0                   1033.7                   709.90                   822.25                   1102.8                   1112.7                   1113.5                   1112.7                   708.32                   803.79                   1052.6                   1067.1                   1070.5                   1070.3                   709.35                   819.84                   1102.0                   1112.3                   1113.3                   1112.6                   700.78                   782.76                   1012.7                   1029.6                   1035.7                   1036.3                   709.67                   817.77                   1090.7                   1101.8                   1103.2                   1102.5                   708.83                   809.46                   1073.0                   1086.3                   1088.7                   1088.3                   706.30                   802.71                   1067.6                   1081.6                   1084.3                   1083.9                   711.87                   820.16                   1086.5                   1097.7                   1099.2                   1098.6                   710.15                   831.47                   1140.7                   1148.6                   1148.4                   1147.4
18.000                   2.2500                   3.0000                   1.4000                   6000.0                   4000.0                   65.000                   724.51                   817.68                   1040.1                   1054.2                   1058.0                   1057.9                   733.02                   857.08                   1101.6                   1109.6                   1109.9                   1109.1                   731.43                   842.28                   1075.9                   1086.7                   1088.3                   1087.7                   732.40                   854.58                   1100.7                   1109.0                   1109.5                   1108.7                   724.19                   817.49                   1041.4                   1055.6                   1059.4                   1059.3                   732.59                   852.45                   1092.8                   1101.7                   1102.4                   1101.6                   731.81                   846.31                   1084.9                   1094.8                   1095.9                   1095.3                   729.46                   839.69                   1080.6                   1091.1                   1092.4                   1091.8                   734.98                   856.78                   1091.6                   1100.2                   1100.9                   1100.1                   736.01                   883.10                   1152.4                   1157.3                   1156.3                   1155.1
18.000                   2.2500                   3.0000                   1.4000                   6000.0                   4000.0                   70.000                   744.72                   854.08                   1063.7                   1074.7                   1076.6                   1076.2                   755.15                   888.75                   1102.7                   1109.3                   1109.1                   1108.3                   753.68                   879.37                   1090.2                   1098.1                   1098.5                   1097.8                   754.29                   886.35                   1101.6                   1108.4                   1108.3                   1107.5                   744.33                   853.73                   1064.2                   1075.2                   1077.2                   1076.7                   754.53                   885.03                   1097.3                   1104.3                   1104.4                   1103.6                   753.84                   881.47                   1094.2                   1101.7                   1101.9                   1101.1                   750.97                   874.99                   1089.6                   1097.6                   1098.1                   1097.3                   758.42                   891.85                   1098.4                   1104.9                   1104.9                   1104.0                   765.72                   931.59                   1163.4                   1166.6                   1164.9                   1163.7
18.000                   2.2500                   3.0000                   1.4000                   6000.0                   4000.0                   75.000                   776.58                   888.07                   1078.6                   1087.1                   1087.9                   1087.3                   788.85                   917.66                   1106.2                   1111.4                   1110.8                   1109.9                   788.49                   912.17                   1099.9                   1105.8                   1105.5                   1104.6                   787.77                   915.45                   1105.0                   1110.4                   1109.9                   1109.0                   776.16                   887.68                   1078.8                   1087.3                   1088.1                   1087.5                   788.37                   914.92                   1102.6                   1108.2                   1107.8                   1106.9                   788.16                   913.09                   1101.8                   1107.5                   1107.2                   1106.3                   784.66                   906.91                   1097.0                   1103.2                   1103.1                   1102.2                   796.11                   924.49                   1105.8                   1110.7                   1110.1                   1109.1                   812.82                   973.24                   1174.5                   1176.4                   1174.4                   1173.1