% Model:              batchmodel_COIL_N_18_COIL_kr_1.5_COIL_kh_1_COIL_kturn_1.4_FUNZ_freq_2000_FUNZ_I_eff_4000.mph
% Version:            COMSOL 5.6.0.280
% Date:               Feb 1 2022, 12:32
% Table:              Tabella 1 - GRIGLIA_T
% COIL_N                 COIL_kr                  COIL_kh                  COIL_kturn               FUNZ_freq                FUNZ_I_eff               Time (s)                 Temperatura (degC), Punto: (0, 0)Temperatura (degC), Punto: (15, 0)Temperatura (degC), Punto: (25.641, 0)Temperatura (degC), Punto: (27.821, 0)Temperatura (degC), Punto: (29.128, 0)Temperatura (degC), Punto: (29.564, 0)Temperatura (degC), Punto: (0, 62.5)Temperatura (degC), Punto: (15, 62.5)Temperatura (degC), Punto: (25.641, 62.5)Temperatura (degC), Punto: (27.821, 62.5)Temperatura (degC), Punto: (29.128, 62.5)Temperatura (degC), Punto: (29.564, 62.5)Temperatura (degC), Punto: (0, 125)Temperatura (degC), Punto: (15, 125)Temperatura (degC), Punto: (25.641, 125)Temperatura (degC), Punto: (27.821, 125)Temperatura (degC), Punto: (29.128, 125)Temperatura (degC), Punto: (29.564, 125)Temperatura (degC), Punto: (0, 187.5)Temperatura (degC), Punto: (15, 187.5)Temperatura (degC), Punto: (25.641, 187.5)Temperatura (degC), Punto: (27.821, 187.5)Temperatura (degC), Punto: (29.128, 187.5)Temperatura (degC), Punto: (29.564, 187.5)Temperatura (degC), Punto: (0, 250)Temperatura (degC), Punto: (15, 250)Temperatura (degC), Punto: (25.641, 250)Temperatura (degC), Punto: (27.821, 250)Temperatura (degC), Punto: (29.128, 250)Temperatura (degC), Punto: (29.564, 250)Temperatura (degC), Punto: (0, 312.5)Temperatura (degC), Punto: (15, 312.5)Temperatura (degC), Punto: (25.641, 312.5)Temperatura (degC), Punto: (27.821, 312.5)Temperatura (degC), Punto: (29.128, 312.5)Temperatura (degC), Punto: (29.564, 312.5)Temperatura (degC), Punto: (0, 375)Temperatura (degC), Punto: (15, 375)Temperatura (degC), Punto: (25.641, 375)Temperatura (degC), Punto: (27.821, 375)Temperatura (degC), Punto: (29.128, 375)Temperatura (degC), Punto: (29.564, 375)Temperatura (degC), Punto: (0, 437.5)Temperatura (degC), Punto: (15, 437.5)Temperatura (degC), Punto: (25.641, 437.5)Temperatura (degC), Punto: (27.821, 437.5)Temperatura (degC), Punto: (29.128, 437.5)Temperatura (degC), Punto: (29.564, 437.5)Temperatura (degC), Punto: (0, 468.75)Temperatura (degC), Punto: (15, 468.75)Temperatura (degC), Punto: (25.641, 468.75)Temperatura (degC), Punto: (27.821, 468.75)Temperatura (degC), Punto: (29.128, 468.75)Temperatura (degC), Punto: (29.564, 468.75)Temperatura (degC), Punto: (0, 492.19)Temperatura (degC), Punto: (15, 492.19)Temperatura (degC), Punto: (25.641, 492.19)Temperatura (degC), Punto: (27.821, 492.19)Temperatura (degC), Punto: (29.128, 492.19)Temperatura (degC), Punto: (29.564, 492.19)
18.000                   1.5000                   1.0000                   1.4000                   2000.0                   4000.0                   0.0000                   20.000                   20.000                   20.000                   20.008                   20.179                   20.297                   20.000                   20.000                   20.000                   20.008                   20.180                   20.299                   20.000                   20.000                   20.000                   20.008                   20.182                   20.301                   20.000                   20.000                   20.000                   20.008                   20.181                   20.300                   20.000                   20.000                   20.000                   20.001                   20.112                   20.206                   20.000                   20.000                   20.000                   20.000                   20.000                   20.009                   20.000                   20.000                   20.000                   20.000                   20.000                   20.000                   20.000                   20.000                   20.000                   20.000                   20.000                   20.000                   20.000                   20.000                   20.000                   20.000                   20.000                   20.000                   20.000                   20.000                   20.000                   20.000                   20.000                   20.000
18.000                   1.5000                   1.0000                   1.4000                   2000.0                   4000.0                   5.0000                   39.812                   122.72                   502.46                   666.54                   743.79                   757.65                   39.837                   122.92                   503.60                   667.88                   745.10                   758.98                   39.822                   122.89                   504.54                   669.25                   746.62                   760.55                   39.786                   122.59                   501.89                   665.83                   743.01                   756.83                   33.195                   90.805                   350.64                   468.90                   533.20                   545.69                   21.189                   26.138                   44.065                   50.146                   54.303                   55.626                   20.566                   22.914                   29.843                   31.353                   32.155                   32.397                   20.340                   21.806                   26.065                   26.830                   27.145                   27.219                   20.263                   21.367                   24.514                   25.041                   25.242                   25.287                   20.234                   21.227                   24.034                   24.502                   24.665                   24.695
18.000                   1.5000                   1.0000                   1.4000                   2000.0                   4000.0                   10.000                   161.77                   323.36                   914.39                   1120.3                   1172.8                   1178.2                   161.95                   323.99                   922.69                   1127.1                   1178.6                   1183.8                   161.95                   324.45                   934.80                   1137.0                   1187.0                   1192.1                   161.61                   323.69                   927.73                   1131.6                   1182.6                   1187.7                   122.40                   239.96                   559.02                   663.26                   716.44                   726.46                   30.456                   41.099                   63.402                   69.144                   72.629                   73.701                   23.441                   26.187                   30.614                   31.535                   32.057                   32.223                   22.057                   23.517                   25.406                   25.688                   25.825                   25.864                   21.664                   22.788                   24.139                   24.316                   24.395                   24.416                   21.417                   22.352                   23.430                   23.557                   23.607                   23.620
18.000                   1.5000                   1.0000                   1.4000                   2000.0                   4000.0                   15.000                   312.00                   505.84                   1162.7                   1243.5                   1258.8                   1258.8                   312.36                   506.89                   1166.2                   1246.2                   1261.3                   1261.3                   312.47                   507.92                   1171.7                   1250.8                   1265.5                   1265.5                   312.18                   507.86                   1171.2                   1250.2                   1265.0                   1264.9                   232.78                   354.30                   619.49                   696.23                   735.78                   743.26                   45.449                   57.028                   76.778                   81.454                   84.304                   85.196                   26.240                   28.301                   31.412                   32.090                   32.495                   32.628                   23.391                   24.226                   25.239                   25.413                   25.508                   25.538                   22.731                   23.337                   24.013                   24.116                   24.169                   24.185                   22.320                   22.805                   23.309                   23.377                   23.409                   23.418
18.000                   1.5000                   1.0000                   1.4000                   2000.0                   4000.0                   20.000                   446.12                   651.65                   1228.9                   1269.2                   1274.2                   1272.8                   446.56                   652.68                   1230.4                   1270.5                   1275.5                   1274.0                   446.74                   653.73                   1232.9                   1272.7                   1277.6                   1276.1                   447.06                   654.89                   1233.1                   1272.7                   1277.5                   1276.1                   323.69                   433.40                   659.56                   725.06                   759.57                   766.07                   62.194                   72.909                   91.032                   95.414                   98.116                   98.967                   28.435                   30.044                   32.639                   33.252                   33.629                   33.755                   24.135                   24.651                   25.354                   25.497                   25.581                   25.609                   23.279                   23.626                   24.059                   24.140                   24.186                   24.201                   22.805                   23.072                   23.378                   23.428                   23.455                   23.463
18.000                   1.5000                   1.0000                   1.4000                   2000.0                   4000.0                   25.000                   560.29                   781.31                   1260.5                   1282.3                   1282.6                   1280.5                   560.76                   782.54                   1261.3                   1283.0                   1283.3                   1281.2                   560.96                   783.74                   1262.5                   1284.1                   1284.4                   1282.3                   561.96                   786.19                   1262.6                   1284.1                   1284.3                   1282.2                   397.68                   496.14                   696.60                   756.41                   788.75                   794.77                   79.105                   89.102                   106.46                   110.79                   113.50                   114.35                   30.399                   31.778                   34.160                   34.756                   35.130                   35.256                   24.651                   25.017                   25.586                   25.718                   25.799                   25.826                   23.625                   23.850                   24.177                   24.249                   24.292                   24.307                   23.123                   23.288                   23.506                   23.548                   23.573                   23.581
18.000                   1.5000                   1.0000                   1.4000                   2000.0                   4000.0                   30.000                   650.87                   927.55                   1279.7                   1293.3                   1291.5                   1289.1                   651.29                   928.82                   1280.2                   1293.8                   1292.0                   1289.7                   651.46                   929.78                   1280.9                   1294.5                   1292.8                   1290.4                   652.82                   932.90                   1281.1                   1294.6                   1292.8                   1290.4                   457.39                   548.70                   734.97                   793.69                   825.08                   830.68                   96.012                   105.66                   122.89                   127.28                   130.04                   130.91                   32.366                   33.662                   35.994                   36.596                   36.976                   37.104                   25.067                   25.376                   25.898                   26.027                   26.108                   26.135                   23.876                   24.053                   24.341                   24.410                   24.453                   24.467                   23.356                   23.480                   23.664                   23.704                   23.729                   23.737
18.000                   1.5000                   1.0000                   1.4000                   2000.0                   4000.0                   35.000                   724.11                   1053.1                   1300.2                   1309.5                   1306.6                   1304.0                   724.49                   1054.0                   1300.6                   1309.9                   1307.1                   1304.5                   724.66                   1054.6                   1301.1                   1310.5                   1307.6                   1305.0                   726.31                   1057.0                   1301.5                   1310.7                   1307.9                   1305.3                   510.34                   597.24                   780.46                   840.02                   869.57                   874.65                   112.87                   122.41                   139.79                   144.29                   147.12                   148.00                   34.455                   35.726                   38.069                   38.684                   39.074                   39.206                   25.466                   25.748                   26.253                   26.382                   26.464                   26.492                   24.103                   24.258                   24.527                   24.596                   24.639                   24.654                   23.563                   23.667                   23.835                   23.874                   23.898                   23.906
18.000                   1.5000                   1.0000                   1.4000                   2000.0                   4000.0                   40.000                   828.21                   1144.2                   1327.7                   1334.8                   1331.2                   1328.4                   829.14                   1144.8                   1328.1                   1335.2                   1331.6                   1328.8                   829.44                   1145.1                   1328.5                   1335.7                   1332.1                   1329.3                   834.00                   1146.7                   1329.0                   1336.1                   1332.6                   1329.8                   558.59                   644.11                   840.15                   897.84                   924.49                   928.81                   129.69                   139.26                   156.92                   161.53                   164.44                   165.35                   36.721                   37.998                   40.385                   41.017                   41.419                   41.555                   25.870                   26.142                   26.644                   26.776                   26.859                   26.887                   24.324                   24.469                   24.733                   24.801                   24.845                   24.860                   23.758                   23.854                   24.015                   24.054                   24.078                   24.086
18.000                   1.5000                   1.0000                   1.4000                   2000.0                   4000.0                   45.000                   985.37                   1214.9                   1362.8                   1367.9                   1363.6                   1360.6                   986.29                   1215.3                   1363.1                   1368.3                   1364.0                   1361.0                   986.52                   1215.5                   1363.4                   1368.7                   1364.4                   1361.4                   990.85                   1216.7                   1363.9                   1369.1                   1364.8                   1361.8                   603.20                   691.64                   913.93                   967.45                   988.66                   991.59                   146.42                   156.07                   174.02                   178.73                   181.71                   182.63                   39.192                   40.491                   42.936                   43.584                   43.997                   44.137                   26.291                   26.561                   27.068                   27.202                   27.287                   27.316                   24.550                   24.690                   24.953                   25.022                   25.067                   25.082                   23.952                   24.043                   24.201                   24.240                   24.264                   24.273
18.000                   1.5000                   1.0000                   1.4000                   2000.0                   4000.0                   50.000                   1109.2                   1277.4                   1392.6                   1394.9                   1389.8                   1386.6                   1109.7                   1277.8                   1392.9                   1395.2                   1390.1                   1386.9                   1109.8                   1277.9                   1393.1                   1395.4                   1390.4                   1387.2                   1112.3                   1278.7                   1393.3                   1395.6                   1390.5                   1387.3                   645.48                   743.22                   992.79                   1037.8                   1051.7                   1052.8                   162.94                   172.66                   190.79                   195.55                   198.56                   199.48                   41.881                   43.206                   45.700                   46.361                   46.781                   46.923                   26.736                   27.008                   27.520                   27.656                   27.742                   27.771                   24.783                   24.923                   25.186                   25.256                   25.301                   25.316                   24.147                   24.237                   24.394                   24.433                   24.457                   24.466
18.000                   1.5000                   1.0000                   1.4000                   2000.0                   4000.0                   55.000                   1198.9                   1327.3                   1412.2                   1412.8                   1407.1                   1403.7                   1199.3                   1327.6                   1412.4                   1413.0                   1407.3                   1404.0                   1199.4                   1327.6                   1412.6                   1413.3                   1407.6                   1404.3                   1200.8                   1328.1                   1412.7                   1413.3                   1407.6                   1404.2                   687.08                   805.75                   1063.7                   1096.8                   1104.6                   1104.5                   179.16                   188.91                   207.10                   211.88                   214.90                   215.82                   44.787                   46.135                   48.669                   49.339                   49.765                   49.909                   27.209                   27.483                   28.000                   28.137                   28.224                   28.253                   25.028                   25.168                   25.432                   25.502                   25.547                   25.562                   24.347                   24.436                   24.593                   24.632                   24.656                   24.665
18.000                   1.5000                   1.0000                   1.4000                   2000.0                   4000.0                   60.000                   1267.3                   1363.5                   1427.7                   1427.1                   1420.8                   1417.4                   1267.6                   1363.6                   1427.9                   1427.4                   1421.1                   1417.6                   1267.7                   1363.7                   1428.1                   1427.6                   1421.4                   1417.9                   1268.3                   1363.8                   1428.1                   1427.5                   1421.3                   1417.8                   730.79                   879.26                   1120.8                   1144.4                   1148.1                   1147.1                   194.97                   204.70                   222.88                   227.65                   230.67                   231.59                   47.900                   49.268                   51.832                   52.509                   52.938                   53.083                   27.710                   27.987                   28.508                   28.646                   28.733                   28.763                   25.284                   25.424                   25.689                   25.760                   25.805                   25.820                   24.553                   24.642                   24.799                   24.838                   24.862                   24.870
18.000                   1.5000                   1.0000                   1.4000                   2000.0                   4000.0                   65.000                   1321.0                   1389.7                   1445.5                   1444.2                   1437.3                   1433.7                   1321.2                   1389.8                   1445.8                   1444.5                   1437.6                   1434.0                   1321.2                   1389.8                   1446.0                   1444.8                   1437.9                   1434.3                   1321.3                   1389.8                   1445.8                   1444.5                   1437.6                   1434.0                   781.52                   954.20                   1167.1                   1184.0                   1185.0                   1183.4                   210.41                   220.10                   238.21                   242.97                   245.97                   246.88                   51.179                   52.562                   55.151                   55.832                   56.265                   56.411                   28.238                   28.517                   29.041                   29.180                   29.268                   29.298                   25.552                   25.692                   25.958                   26.028                   26.073                   26.088                   24.765                   24.853                   25.010                   25.049                   25.073                   25.081
18.000                   1.5000                   1.0000                   1.4000                   2000.0                   4000.0                   70.000                   1359.2                   1411.3                   1478.3                   1476.8                   1469.3                   1465.5                   1359.3                   1411.4                   1478.6                   1477.1                   1469.7                   1465.9                   1359.4                   1411.4                   1478.9                   1477.5                   1470.1                   1466.3                   1359.1                   1411.0                   1477.6                   1476.2                   1468.8                   1465.0                   847.17                   1022.4                   1205.2                   1217.3                   1216.4                   1214.4                   225.43                   235.06                   253.08                   257.81                   260.81                   261.71                   54.616                   56.012                   58.621                   59.308                   59.743                   59.890                   28.795                   29.076                   29.603                   29.742                   29.831                   29.861                   25.830                   25.971                   26.237                   26.308                   26.353                   26.369                   24.983                   25.072                   25.228                   25.267                   25.292                   25.300
18.000                   1.5000                   1.0000                   1.4000                   2000.0                   4000.0                   75.000                   1385.5                   1434.7                   1518.4                   1516.6                   1508.5                   1504.4                   1385.6                   1434.8                   1518.7                   1517.0                   1508.9                   1504.8                   1385.6                   1434.9                   1519.1                   1517.4                   1509.3                   1505.3                   1385.2                   1433.8                   1516.6                   1514.9                   1506.8                   1502.8                   918.85                   1082.7                   1236.7                   1245.4                   1243.1                   1240.9                   240.05                   249.60                   267.47                   272.18                   275.16                   276.05                   58.203                   59.610                   62.236                   62.927                   63.365                   63.513                   29.381                   29.663                   30.193                   30.333                   30.422                   30.453                   26.121                   26.262                   26.529                   26.600                   26.645                   26.661                   25.209                   25.298                   25.454                   25.493                   25.517                   25.525