% Model:              batchmodel_COIL_N_18_COIL_kr_3_COIL_kh_3_COIL_kturn_1.4_FUNZ_freq_10000_FUNZ_I_eff_2500.mph
% Version:            COMSOL 5.6.0.280
% Date:               Feb 2 2022, 08:23
% Table:              Tabella 1 - GRIGLIA_T
% COIL_N                 COIL_kr                  COIL_kh                  COIL_kturn               FUNZ_freq                FUNZ_I_eff               Time (s)                 Temperatura (degC), Punto: (0, 0)Temperatura (degC), Punto: (15, 0)Temperatura (degC), Punto: (28.051, 0)Temperatura (degC), Punto: (29.025, 0)Temperatura (degC), Punto: (29.61, 0)Temperatura (degC), Punto: (29.805, 0)Temperatura (degC), Punto: (0, 62.5)Temperatura (degC), Punto: (15, 62.5)Temperatura (degC), Punto: (28.051, 62.5)Temperatura (degC), Punto: (29.025, 62.5)Temperatura (degC), Punto: (29.61, 62.5)Temperatura (degC), Punto: (29.805, 62.5)Temperatura (degC), Punto: (0, 125)Temperatura (degC), Punto: (15, 125)Temperatura (degC), Punto: (28.051, 125)Temperatura (degC), Punto: (29.025, 125)Temperatura (degC), Punto: (29.61, 125)Temperatura (degC), Punto: (29.805, 125)Temperatura (degC), Punto: (0, 187.5)Temperatura (degC), Punto: (15, 187.5)Temperatura (degC), Punto: (28.051, 187.5)Temperatura (degC), Punto: (29.025, 187.5)Temperatura (degC), Punto: (29.61, 187.5)Temperatura (degC), Punto: (29.805, 187.5)Temperatura (degC), Punto: (0, 250)Temperatura (degC), Punto: (15, 250)Temperatura (degC), Punto: (28.051, 250)Temperatura (degC), Punto: (29.025, 250)Temperatura (degC), Punto: (29.61, 250)Temperatura (degC), Punto: (29.805, 250)Temperatura (degC), Punto: (0, 312.5)Temperatura (degC), Punto: (15, 312.5)Temperatura (degC), Punto: (28.051, 312.5)Temperatura (degC), Punto: (29.025, 312.5)Temperatura (degC), Punto: (29.61, 312.5)Temperatura (degC), Punto: (29.805, 312.5)Temperatura (degC), Punto: (0, 375)Temperatura (degC), Punto: (15, 375)Temperatura (degC), Punto: (28.051, 375)Temperatura (degC), Punto: (29.025, 375)Temperatura (degC), Punto: (29.61, 375)Temperatura (degC), Punto: (29.805, 375)Temperatura (degC), Punto: (0, 437.5)Temperatura (degC), Punto: (15, 437.5)Temperatura (degC), Punto: (28.051, 437.5)Temperatura (degC), Punto: (29.025, 437.5)Temperatura (degC), Punto: (29.61, 437.5)Temperatura (degC), Punto: (29.805, 437.5)Temperatura (degC), Punto: (0, 468.75)Temperatura (degC), Punto: (15, 468.75)Temperatura (degC), Punto: (28.051, 468.75)Temperatura (degC), Punto: (29.025, 468.75)Temperatura (degC), Punto: (29.61, 468.75)Temperatura (degC), Punto: (29.805, 468.75)Temperatura (degC), Punto: (0, 492.19)Temperatura (degC), Punto: (15, 492.19)Temperatura (degC), Punto: (28.051, 492.19)Temperatura (degC), Punto: (29.025, 492.19)Temperatura (degC), Punto: (29.61, 492.19)Temperatura (degC), Punto: (29.805, 492.19)
18.000                   3.0000                   3.0000                   1.4000                   10000                    2500.0                   0.0000                   20.000                   20.000                   20.000                   20.000                   20.044                   20.177                   20.000                   20.000                   20.000                   20.000                   20.044                   20.178                   20.000                   20.000                   20.000                   20.000                   20.045                   20.179                   20.000                   20.000                   20.000                   20.000                   20.044                   20.178                   20.000                   20.000                   20.000                   20.000                   20.044                   20.177                   20.000                   20.000                   20.000                   20.000                   20.045                   20.179                   20.000                   20.000                   20.000                   20.000                   20.045                   20.180                   20.000                   20.000                   20.000                   20.000                   20.045                   20.180                   20.000                   20.000                   20.000                   20.000                   20.048                   20.187                   20.000                   20.000                   20.000                   20.000                   20.052                   20.198
18.000                   3.0000                   3.0000                   1.4000                   10000                    2500.0                   5.0000                   25.299                   42.395                   135.18                   147.61                   155.48                   157.70                   25.354                   42.795                   137.20                   149.94                   157.92                   160.17                   25.488                   43.312                   138.68                   151.38                   159.38                   161.62                   25.360                   42.806                   137.15                   149.91                   157.93                   160.18                   25.254                   42.355                   135.03                   147.52                   155.48                   157.73                   25.392                   42.949                   137.78                   150.53                   158.47                   160.69                   25.445                   43.168                   138.68                   151.41                   159.47                   161.73                   25.345                   42.773                   137.70                   150.62                   158.79                   161.09                   25.507                   43.215                   141.50                   154.97                   163.31                   165.59                   32.857                   53.767                   155.41                   168.87                   177.46                   179.85
18.000                   3.0000                   3.0000                   1.4000                   10000                    2500.0                   10.000                   55.990                   92.628                   218.18                   233.32                   242.74                   245.28                   56.308                   93.394                   220.72                   236.09                   245.58                   248.14                   56.808                   94.452                   225.19                   241.23                   250.89                   253.47                   56.318                   93.362                   220.17                   235.53                   244.99                   247.55                   55.977                   92.700                   218.57                   233.71                   243.08                   245.59                   56.447                   93.658                   221.30                   236.75                   246.35                   248.96                   56.772                   94.445                   224.95                   240.73                   250.46                   253.04                   56.625                   94.048                   222.10                   237.49                   247.03                   249.56                   58.354                   96.859                   230.70                   246.98                   257.00                   259.69                   72.406                   113.79                   246.44                   261.82                   271.27                   273.76
18.000                   3.0000                   3.0000                   1.4000                   10000                    2500.0                   15.000                   102.47                   150.84                   300.08                   317.48                   328.13                   330.93                   103.07                   152.05                   304.19                   321.92                   332.62                   335.42                   103.97                   153.74                   310.61                   329.13                   340.05                   342.80                   103.06                   151.88                   303.26                   321.13                   332.01                   334.84                   102.57                   151.13                   301.47                   319.09                   329.86                   332.66                   103.39                   152.62                   306.07                   324.22                   335.31                   338.21                   104.22                   154.33                   312.30                   330.84                   342.08                   344.91                   104.09                   153.63                   307.35                   325.36                   336.35                   339.12                   108.11                   158.91                   318.73                   337.62                   348.98                   351.86                   131.19                   182.30                   333.60                   350.78                   361.23                   363.89
18.000                   3.0000                   3.0000                   1.4000                   10000                    2500.0                   20.000                   156.47                   212.54                   381.53                   401.29                   413.16                   416.16                   157.28                   214.01                   385.78                   405.70                   417.52                   420.50                   158.75                   216.64                   395.06                   416.02                   428.26                   431.17                   157.43                   214.19                   387.05                   407.47                   419.73                   422.77                   156.97                   213.53                   385.44                   405.62                   417.65                   420.66                   158.08                   215.46                   391.46                   412.30                   424.84                   427.97                   159.40                   217.76                   397.11                   418.16                   430.81                   433.81                   159.37                   217.08                   393.03                   413.74                   426.23                   429.21                   165.28                   223.88                   403.46                   424.36                   436.60                   439.62                   194.03                   250.92                   416.94                   435.77                   447.14                   449.93
18.000                   3.0000                   3.0000                   1.4000                   10000                    2500.0                   25.000                   213.02                   275.25                   463.38                   485.69                   498.90                   502.08                   214.02                   276.88                   466.88                   489.09                   502.09                   505.22                   216.08                   280.42                   478.63                   502.08                   515.69                   518.73                   214.47                   277.66                   470.58                   493.51                   507.14                   510.36                   214.23                   277.43                   470.60                   493.48                   506.74                   509.92                   215.43                   279.34                   475.88                   499.32                   513.25                   516.56                   217.11                   281.91                   480.37                   503.84                   517.79                   520.93                   217.30                   281.58                   478.35                   501.77                   515.72                   518.89                   224.54                   289.04                   485.80                   508.60                   521.66                   524.79                   256.44                   317.85                   496.44                   516.77                   528.94                   531.81
18.000                   3.0000                   3.0000                   1.4000                   10000                    2500.0                   30.000                   270.99                   338.35                   545.62                   570.80                   585.58                   588.90                   272.23                   340.26                   549.35                   574.40                   588.95                   592.27                   274.74                   344.27                   560.80                   586.87                   601.90                   605.09                   273.05                   341.62                   553.94                   579.64                   594.76                   598.12                   273.21                   342.15                   556.71                   582.60                   597.31                   600.64                   274.23                   343.43                   558.55                   584.64                   599.93                   603.37                   276.14                   346.08                   562.68                   588.74                   603.98                   607.29                   276.64                   346.32                   562.79                   589.02                   604.44                   607.78                   284.53                   353.54                   565.64                   590.49                   604.46                   607.72                   317.07                   382.34                   571.63                   593.43                   606.35                   609.28
18.000                   3.0000                   3.0000                   1.4000                   10000                    2500.0                   35.000                   329.30                   401.59                   632.90                   662.76                   680.00                   683.67                   330.70                   403.57                   636.38                   666.37                   683.66                   687.35                   333.38                   407.41                   644.53                   675.10                   692.69                   696.38                   331.84                   405.20                   639.94                   670.22                   687.71                   691.42                   332.43                   406.18                   642.26                   672.65                   690.08                   693.79                   333.09                   406.90                   643.11                   673.60                   691.19                   694.93                   335.00                   409.33                   646.97                   677.64                   695.33                   699.05                   335.83                   410.06                   647.96                   678.75                   696.53                   700.27                   343.26                   416.13                   648.89                   678.81                   695.98                   699.64                   369.04                   438.37                   640.33                   664.33                   678.36                   681.40
18.000                   3.0000                   3.0000                   1.4000                   10000                    2500.0                   40.000                   385.24                   460.98                   705.47                   739.28                   758.89                   762.90                   386.71                   462.94                   708.78                   742.91                   762.64                   766.66                   389.33                   466.33                   713.78                   748.07                   767.58                   771.60                   388.04                   464.66                   711.68                   746.02                   765.87                   769.92                   388.89                   465.82                   713.35                   747.67                   767.55                   771.60                   389.24                   466.12                   713.54                   747.89                   767.73                   771.77                   391.08                   468.40                   717.63                   752.50                   772.45                   776.52                   392.16                   469.46                   719.43                   754.66                   774.79                   778.86                   398.65                   474.17                   717.59                   751.51                   771.07                   775.04                   418.66                   490.52                   696.81                   721.90                   736.66                   739.79
18.000                   3.0000                   3.0000                   1.4000                   10000                    2500.0                   45.000                   438.73                   516.92                   774.01                   811.84                   833.18                   837.37                   440.24                   518.84                   777.97                   816.29                   837.77                   841.98                   442.65                   521.62                   779.46                   817.23                   838.00                   842.16                   441.67                   520.55                   780.54                   818.97                   840.56                   844.79                   442.67                   521.72                   781.40                   819.60                   841.10                   845.32                   442.76                   521.72                   781.27                   819.56                   841.04                   845.24                   444.53                   523.88                   785.58                   824.37                   845.81                   850.02                   445.78                   525.17                   788.28                   827.61                   849.33                   853.55                   451.10                   528.37                   782.76                   820.28                   841.26                   845.38                   466.42                   539.43                   746.90                   773.52                   789.01                   792.21
18.000                   3.0000                   3.0000                   1.4000                   10000                    2500.0                   50.000                   489.15                   568.68                   843.76                   884.87                   906.61                   910.70                   490.68                   570.59                   849.03                   890.68                   912.58                   916.68                   492.80                   572.69                   847.15                   887.52                   908.55                   912.62                   492.15                   572.25                   851.73                   893.31                   915.24                   919.36                   493.19                   573.31                   851.62                   892.68                   914.31                   918.39                   493.06                   573.06                   851.07                   892.39                   914.16                   918.23                   494.78                   575.12                   855.16                   896.44                   917.92                   921.96                   496.17                   576.61                   859.20                   901.00                   922.81                   926.88                   500.19                   578.20                   849.45                   889.48                   910.56                   914.57                   511.95                   584.55                   794.97                   823.82                   839.98                   843.21
18.000                   3.0000                   3.0000                   1.4000                   10000                    2500.0                   55.000                   536.51                   616.02                   912.08                   952.60                   972.97                   976.65                   538.02                   617.89                   917.41                   958.29                   978.69                   982.34                   539.80                   619.35                   914.37                   954.31                   974.27                   977.94                   539.49                   619.50                   920.65                   961.43                   981.79                   985.45                   540.49                   620.37                   919.47                   959.53                   979.57                   983.19                   540.18                   619.88                   917.76                   958.03                   978.15                   981.77                   541.86                   621.83                   920.83                   960.66                   980.47                   984.06                   543.35                   623.53                   926.69                   967.03                   987.13                   990.74                   546.00                   623.52                   914.07                   953.33                   973.06                   976.68                   554.69                   625.52                   845.48                   875.32                   891.48                   894.62
18.000                   3.0000                   3.0000                   1.4000                   10000                    2500.0                   60.000                   579.68                   657.77                   961.01                   996.18                   1013.0                   1015.9                   581.14                   659.58                   965.92                   1001.2                   1017.8                   1020.6                   582.56                   660.63                   964.78                   999.87                   1016.4                   1019.3                   582.54                   661.04                   967.60                   1002.5                   1018.8                   1021.6                   583.42                   661.70                   966.40                   1000.9                   1017.2                   1020.0                   583.00                   661.17                   967.34                   1002.5                   1018.9                   1021.7                   584.59                   662.90                   967.91                   1002.5                   1018.6                   1021.3                   586.11                   664.66                   970.95                   1005.0                   1020.8                   1023.5                   587.45                   663.53                   963.37                   998.26                   1014.8                   1017.7                   592.79                   661.50                   893.52                   922.24                   937.34                   940.20
18.000                   3.0000                   3.0000                   1.4000                   10000                    2500.0                   65.000                   618.15                   693.58                   987.53                   1016.1                   1028.6                   1030.7                   619.53                   695.39                   991.88                   1020.2                   1032.4                   1034.3                   620.65                   696.11                   990.38                   1018.4                   1030.6                   1032.6                   620.80                   696.60                   992.96                   1021.0                   1032.9                   1034.8                   621.53                   697.04                   991.57                   1019.4                   1031.5                   1033.4                   621.09                   696.63                   994.19                   1022.6                   1034.6                   1036.4                   622.54                   698.05                   993.25                   1021.1                   1033.0                   1034.8                   624.01                   699.59                   991.09                   1018.2                   1030.0                   1031.9                   624.37                   698.25                   989.29                   1016.4                   1028.1                   1030.0                   626.87                   693.05                   930.13                   955.86                   969.17                   971.64
18.000                   3.0000                   3.0000                   1.4000                   10000                    2500.0                   70.000                   653.65                   725.75                   1005.0                   1027.5                   1036.5                   1037.8                   654.93                   727.54                   1007.3                   1029.3                   1037.9                   1039.1                   655.78                   728.01                   1003.4                   1024.8                   1033.5                   1034.8                   656.04                   728.58                   1009.4                   1031.3                   1039.7                   1040.8                   656.61                   728.72                   1004.5                   1026.0                   1034.7                   1035.9                   656.18                   728.55                   1009.6                   1031.7                   1040.2                   1041.3                   657.48                   729.71                   1009.5                   1031.2                   1039.6                   1040.7                   658.83                   730.86                   1002.1                   1023.3                   1032.1                   1033.4                   658.44                   729.73                   1005.0                   1024.7                   1032.2                   1033.3                   658.47                   721.85                   961.50                   983.86                   995.17                   997.22
18.000                   3.0000                   3.0000                   1.4000                   10000                    2500.0                   75.000                   684.62                   754.22                   1016.4                   1034.5                   1041.2                   1042.0                   685.74                   755.97                   1015.3                   1032.9                   1039.4                   1040.2                   686.36                   756.23                   1007.2                   1023.7                   1030.3                   1031.2                   686.68                   757.09                   1020.9                   1038.4                   1044.6                   1045.2                   687.07                   756.67                   1007.3                   1024.1                   1030.7                   1031.6                   686.73                   756.98                   1018.4                   1035.9                   1042.2                   1042.9                   687.82                   758.05                   1020.9                   1038.2                   1044.3                   1044.9                   688.97                   758.52                   1007.5                   1024.4                   1031.4                   1032.3                   688.15                   758.14                   1016.3                   1031.3                   1036.4                   1037.0                   686.46                   748.15                   991.34                   1010.2                   1018.8                   1020.3