% Model:              batchmodel_COIL_N_18_COIL_kr_3_COIL_kh_1_COIL_kturn_1.4_FUNZ_freq_6000_FUNZ_I_eff_1000.mph
% Version:            COMSOL 5.6.0.280
% Date:               Feb 2 2022, 03:09
% Table:              Tabella 1 - GRIGLIA_T
% COIL_N                 COIL_kr                  COIL_kh                  COIL_kturn               FUNZ_freq                FUNZ_I_eff               Time (s)                 Temperatura (degC), Punto: (0, 0)Temperatura (degC), Punto: (15, 0)Temperatura (degC), Punto: (27.483, 0)Temperatura (degC), Punto: (28.742, 0)Temperatura (degC), Punto: (29.497, 0)Temperatura (degC), Punto: (29.748, 0)Temperatura (degC), Punto: (0, 62.5)Temperatura (degC), Punto: (15, 62.5)Temperatura (degC), Punto: (27.483, 62.5)Temperatura (degC), Punto: (28.742, 62.5)Temperatura (degC), Punto: (29.497, 62.5)Temperatura (degC), Punto: (29.748, 62.5)Temperatura (degC), Punto: (0, 125)Temperatura (degC), Punto: (15, 125)Temperatura (degC), Punto: (27.483, 125)Temperatura (degC), Punto: (28.742, 125)Temperatura (degC), Punto: (29.497, 125)Temperatura (degC), Punto: (29.748, 125)Temperatura (degC), Punto: (0, 187.5)Temperatura (degC), Punto: (15, 187.5)Temperatura (degC), Punto: (27.483, 187.5)Temperatura (degC), Punto: (28.742, 187.5)Temperatura (degC), Punto: (29.497, 187.5)Temperatura (degC), Punto: (29.748, 187.5)Temperatura (degC), Punto: (0, 250)Temperatura (degC), Punto: (15, 250)Temperatura (degC), Punto: (27.483, 250)Temperatura (degC), Punto: (28.742, 250)Temperatura (degC), Punto: (29.497, 250)Temperatura (degC), Punto: (29.748, 250)Temperatura (degC), Punto: (0, 312.5)Temperatura (degC), Punto: (15, 312.5)Temperatura (degC), Punto: (27.483, 312.5)Temperatura (degC), Punto: (28.742, 312.5)Temperatura (degC), Punto: (29.497, 312.5)Temperatura (degC), Punto: (29.748, 312.5)Temperatura (degC), Punto: (0, 375)Temperatura (degC), Punto: (15, 375)Temperatura (degC), Punto: (27.483, 375)Temperatura (degC), Punto: (28.742, 375)Temperatura (degC), Punto: (29.497, 375)Temperatura (degC), Punto: (29.748, 375)Temperatura (degC), Punto: (0, 437.5)Temperatura (degC), Punto: (15, 437.5)Temperatura (degC), Punto: (27.483, 437.5)Temperatura (degC), Punto: (28.742, 437.5)Temperatura (degC), Punto: (29.497, 437.5)Temperatura (degC), Punto: (29.748, 437.5)Temperatura (degC), Punto: (0, 468.75)Temperatura (degC), Punto: (15, 468.75)Temperatura (degC), Punto: (27.483, 468.75)Temperatura (degC), Punto: (28.742, 468.75)Temperatura (degC), Punto: (29.497, 468.75)Temperatura (degC), Punto: (29.748, 468.75)Temperatura (degC), Punto: (0, 492.19)Temperatura (degC), Punto: (15, 492.19)Temperatura (degC), Punto: (27.483, 492.19)Temperatura (degC), Punto: (28.742, 492.19)Temperatura (degC), Punto: (29.497, 492.19)Temperatura (degC), Punto: (29.748, 492.19)
18.000                   3.0000                   1.0000                   1.4000                   6000.0                   1000.0                   0.0000                   20.000                   20.000                   20.000                   20.000                   20.026                   20.112                   20.000                   20.000                   20.000                   20.000                   20.026                   20.112                   20.000                   20.000                   20.000                   20.000                   20.026                   20.112                   20.000                   20.000                   20.000                   20.000                   20.025                   20.109                   20.000                   20.000                   20.000                   20.000                   20.011                   20.070                   20.000                   20.000                   20.000                   20.000                   20.001                   20.014                   20.000                   20.000                   20.000                   20.000                   20.000                   20.002                   20.000                   20.000                   20.000                   20.000                   20.000                   20.000                   20.000                   20.000                   20.000                   20.000                   20.000                   20.000                   20.000                   20.000                   20.000                   20.000                   20.000                   20.000
18.000                   3.0000                   1.0000                   1.4000                   6000.0                   1000.0                   5.0000                   23.757                   37.163                   106.02                   118.51                   126.52                   128.86                   23.717                   37.017                   105.49                   118.07                   126.22                   128.60                   23.718                   37.010                   105.59                   118.32                   126.58                   129.01                   23.542                   36.227                   101.36                   113.29                   121.02                   123.33                   22.617                   31.999                   78.603                   86.431                   91.342                   92.930                   20.939                   24.382                   42.216                   44.921                   46.261                   46.660                   20.559                   22.725                   34.705                   36.401                   36.745                   36.837                   20.288                   21.392                   26.682                   27.286                   27.462                   27.445                   20.193                   20.875                   23.977                   24.414                   24.654                   24.709                   20.209                   20.989                   24.635                   25.103                   25.321                   25.375
18.000                   3.0000                   1.0000                   1.4000                   6000.0                   1000.0                   10.000                   46.921                   76.636                   168.43                   182.77                   191.88                   194.33                   46.800                   76.452                   168.05                   182.31                   191.32                   193.74                   46.821                   76.563                   168.33                   182.58                   191.66                   194.11                   45.512                   73.794                   161.91                   175.92                   184.83                   187.25                   38.747                   59.094                   118.85                   127.82                   133.48                   135.06                   26.933                   34.218                   54.123                   56.515                   57.905                   58.384                   24.234                   28.836                   39.298                   39.991                   39.980                   40.084                   22.205                   24.481                   28.515                   28.437                   28.276                   28.264                   21.508                   22.912                   25.046                   24.984                   24.885                   24.875                   21.512                   22.987                   25.149                   25.077                   24.998                   24.967
18.000                   3.0000                   1.0000                   1.4000                   6000.0                   1000.0                   15.000                   85.202                   123.35                   230.50                   246.82                   257.03                   259.65                   85.048                   123.15                   230.33                   246.69                   256.69                   259.31                   85.111                   123.30                   230.45                   246.77                   256.98                   259.66                   81.889                   118.16                   219.32                   234.55                   244.09                   246.63                   65.808                   92.776                   167.29                   177.88                   183.95                   185.61                   37.709                   48.262                   80.485                   84.746                   86.229                   86.573                   30.822                   38.088                   61.967                   64.547                   64.869                   64.960                   25.297                   28.509                   37.849                   39.086                   39.459                   39.485                   23.743                   25.857                   32.330                   33.407                   33.944                   33.965                   23.559                   25.708                   32.463                   33.583                   34.215                   34.240
18.000                   3.0000                   1.0000                   1.4000                   6000.0                   1000.0                   20.000                   129.34                   173.45                   294.33                   312.74                   324.19                   327.04                   129.21                   173.36                   295.21                   313.92                   325.20                   328.06                   129.06                   173.00                   292.85                   310.95                   322.11                   324.95                   123.63                   165.30                   278.30                   295.23                   305.70                   308.42                   98.088                   129.91                   214.94                   226.90                   233.95                   235.73                   52.211                   65.703                   104.96                   109.73                   111.28                   111.60                   40.488                   50.710                   82.295                   85.406                   85.703                   85.742                   30.002                   34.632                   47.870                   49.513                   50.049                   50.074                   27.318                   30.568                   40.649                   42.247                   43.008                   43.062                   26.850                   30.109                   40.080                   41.565                   42.333                   42.361
18.000                   3.0000                   1.0000                   1.4000                   6000.0                   1000.0                   25.000                   176.42                   225.54                   360.41                   381.14                   393.91                   396.96                   176.27                   225.44                   361.38                   382.45                   395.04                   398.11                   175.70                   224.29                   356.61                   376.68                   388.90                   391.88                   167.93                   213.91                   338.46                   357.26                   368.75                   371.63                   132.94                   168.27                   260.47                   273.43                   281.18                   283.07                   69.123                   84.690                   127.24                   132.03                   133.63                   133.98                   52.280                   64.764                   99.670                   102.84                   103.13                   103.13                   36.043                   41.950                   57.614                   59.406                   59.997                   60.019                   32.057                   36.381                   48.745                   50.552                   51.381                   51.462                   31.274                   35.610                   47.763                   49.435                   50.243                   50.300
18.000                   3.0000                   1.0000                   1.4000                   6000.0                   1000.0                   30.000                   225.57                   278.88                   427.11                   450.09                   464.02                   467.21                   225.33                   278.60                   427.23                   450.37                   464.11                   467.34                   224.22                   276.67                   421.40                   443.65                   457.02                   460.14                   214.03                   263.52                   399.20                   419.91                   432.44                   435.43                   169.16                   206.38                   301.46                   314.74                   322.71                   324.68                   87.306                   103.35                   143.32                   147.59                   149.27                   149.69                   64.739                   77.602                   108.76                   111.37                   111.73                   111.76                   42.668                   48.959                   63.612                   65.107                   65.601                   65.626                   37.381                   42.110                   53.783                   55.272                   55.939                   56.016                   36.264                   41.022                   52.693                   54.157                   54.836                   54.907
18.000                   3.0000                   1.0000                   1.4000                   6000.0                   1000.0                   35.000                   275.34                   332.17                   491.03                   515.66                   530.26                   533.56                   274.97                   331.69                   490.35                   514.93                   529.51                   532.80                   273.35                   329.30                   485.70                   510.02                   524.48                   527.75                   260.71                   313.41                   459.55                   482.05                   495.54                   498.65                   204.78                   242.03                   334.52                   347.30                   355.13                   357.17                   104.55                   118.41                   146.17                   149.10                   150.83                   151.37                   75.006                   84.514                   99.692                   100.62                   101.10                   101.23                   48.295                   52.936                   59.882                   60.235                   60.384                   60.423                   42.000                   45.509                   50.797                   51.052                   51.149                   51.172                   40.515                   43.961                   49.033                   49.243                   49.314                   49.329
18.000                   3.0000                   1.0000                   1.4000                   6000.0                   1000.0                   40.000                   324.58                   384.64                   553.71                   580.17                   595.59                   598.98                   324.05                   383.90                   551.82                   578.00                   593.32                   596.66                   322.04                   381.30                   548.27                   574.43                   589.75                   593.13                   307.11                   362.97                   519.26                   543.56                   557.93                   561.15                   239.08                   276.64                   371.58                   384.99                   393.13                   395.25                   120.17                   132.20                   156.56                   159.34                   161.04                   161.60                   82.552                   89.047                   98.567                   99.388                   99.937                   100.16                   52.539                   55.676                   59.708                   59.896                   60.000                   60.055                   45.438                   47.720                   50.314                   50.338                   50.335                   50.343                   43.579                   45.704                   47.742                   47.634                   47.558                   47.566
18.000                   3.0000                   1.0000                   1.4000                   6000.0                   1000.0                   45.000                   372.94                   436.27                   619.28                   649.28                   666.70                   670.38                   372.28                   435.39                   617.65                   647.53                   664.89                   668.56                   369.99                   432.63                   613.47                   642.99                   660.17                   663.81                   352.90                   411.96                   579.88                   606.46                   622.04                   625.43                   271.94                   310.05                   408.39                   422.64                   431.35                   433.53                   134.09                   144.79                   167.48                   170.32                   172.07                   172.63                   87.284                   91.546                   98.086                   98.723                   99.113                   99.241                   55.191                   57.087                   59.547                   59.717                   59.815                   59.846                   47.548                   48.856                   50.375                   50.462                   50.510                   50.526                   45.379                   46.522                   47.657                   47.697                   47.718                   47.725
18.000                   3.0000                   1.0000                   1.4000                   6000.0                   1000.0                   50.000                   417.43                   482.75                   671.18                   703.22                   721.95                   725.81                   416.73                   481.88                   669.80                   701.72                   720.38                   724.24                   414.34                   479.11                   665.95                   697.50                   715.97                   719.79                   396.19                   457.88                   634.92                   663.85                   680.69                   684.25                   303.65                   343.04                   446.05                   461.14                   470.34                   472.58                   147.10                   157.48                   180.25                   183.17                   184.99                   185.57                   90.383                   93.832                   99.560                   100.18                   100.56                   100.69                   56.664                   58.053                   59.956                   60.108                   60.200                   60.230                   48.661                   49.590                   50.730                   50.807                   50.852                   50.868                   46.306                   47.089                   47.882                   47.918                   47.938                   47.945
18.000                   3.0000                   1.0000                   1.4000                   6000.0                   1000.0                   55.000                   461.85                   529.12                   723.08                   757.20                   777.24                   781.29                   461.11                   528.26                   721.94                   755.94                   775.91                   779.95                   458.62                   525.49                   718.42                   752.05                   771.80                   775.80                   439.43                   503.70                   689.77                   721.07                   739.17                   742.91                   335.34                   376.01                   483.70                   499.64                   509.31                   511.62                   160.10                   170.17                   193.02                   196.04                   197.93                   198.53                   93.476                   96.124                   101.06                   101.65                   102.03                   102.16                   58.130                   59.019                   60.374                   60.509                   60.595                   60.624                   49.769                   50.324                   51.088                   51.156                   51.200                   51.215                   47.228                   47.656                   48.114                   48.144                   48.164                   48.171
18.000                   3.0000                   1.0000                   1.4000                   6000.0                   1000.0                   60.000                   502.67                   570.49                   774.80                   813.40                   834.80                   838.93                   501.93                   569.67                   773.62                   812.15                   833.50                   837.63                   499.40                   566.94                   769.65                   807.88                   829.10                   833.22                   479.39                   544.72                   734.93                   769.65                   789.34                   793.24                   366.18                   408.27                   520.92                   537.73                   547.85                   550.22                   173.06                   183.19                   206.64                   209.76                   211.71                   212.32                   96.345                   98.731                   103.58                   104.20                   104.58                   104.71                   59.290                   60.003                   61.251                   61.393                   61.481                   61.511                   50.595                   51.014                   51.684                   51.755                   51.800                   51.816                   47.921                   48.222                   48.603                   48.636                   48.657                   48.664
18.000                   3.0000                   1.0000                   1.4000                   6000.0                   1000.0                   65.000                   542.58                   610.77                   827.01                   869.21                   891.51                   895.64                   541.86                   609.99                   825.82                   867.99                   890.29                   894.42                   539.30                   607.31                   821.52                   863.51                   885.76                   889.90                   518.56                   584.67                   780.98                   818.84                   839.82                   843.84                   396.72                   440.19                   557.49                   575.11                   585.66                   588.09                   186.03                   196.26                   220.31                   223.53                   225.54                   226.17                   99.236                   101.41                   106.21                   106.83                   107.22                   107.35                   60.428                   60.993                   62.154                   62.301                   62.393                   62.423                   51.398                   51.702                   52.295                   52.369                   52.414                   52.430                   48.595                   48.791                   49.109                   49.143                   49.164                   49.171
18.000                   3.0000                   1.0000                   1.4000                   6000.0                   1000.0                   70.000                   579.08                   646.92                   881.05                   923.50                   945.04                   948.87                   578.39                   646.20                   879.99                   922.46                   944.02                   947.86                   575.89                   643.62                   875.84                   918.35                   939.98                   943.83                   554.77                   620.57                   830.33                   870.28                   891.48                   895.39                   426.09                   470.79                   591.62                   609.85                   620.72                   623.17                   199.06                   209.50                   234.21                   237.52                   239.58                   240.23                   102.21                   104.34                   109.18                   109.81                   110.20                   110.34                   61.484                   62.007                   63.156                   63.305                   63.397                   63.428                   52.117                   52.386                   52.962                   53.036                   53.082                   53.097                   49.204                   49.370                   49.674                   49.708                   49.729                   49.736
18.000                   3.0000                   1.0000                   1.4000                   6000.0                   1000.0                   75.000                   613.25                   680.39                   927.76                   968.45                   988.23                   991.59                   612.61                   679.72                   926.88                   967.63                   987.46                   990.84                   610.20                   677.31                   923.40                   964.41                   984.40                   987.82                   589.00                   654.28                   877.34                   917.72                   938.40                   942.10                   454.67                   500.36                   623.89                   642.65                   653.79                   656.25                   212.13                   222.79                   248.11                   251.51                   253.62                   254.28                   105.28                   107.39                   112.27                   112.91                   113.31                   113.44                   62.541                   63.040                   64.181                   64.331                   64.424                   64.455                   52.831                   53.079                   53.642                   53.717                   53.762                   53.778                   49.811                   49.958                   50.252                   50.286                   50.307                   50.314