% Model:              batchmodel_COIL_N_18_COIL_kr_1.5_COIL_kh_1_COIL_kturn_1.1_FUNZ_freq_2000_FUNZ_I_eff_2500.mph
% Version:            COMSOL 5.6.0.280
% Date:               Feb 1 2022, 12:25
% Table:              Tabella 1 - GRIGLIA_T
% COIL_N                 COIL_kr                  COIL_kh                  COIL_kturn               FUNZ_freq                FUNZ_I_eff               Time (s)                 Temperatura (degC), Punto: (0, 0)Temperatura (degC), Punto: (15, 0)Temperatura (degC), Punto: (25.641, 0)Temperatura (degC), Punto: (27.821, 0)Temperatura (degC), Punto: (29.128, 0)Temperatura (degC), Punto: (29.564, 0)Temperatura (degC), Punto: (0, 62.5)Temperatura (degC), Punto: (15, 62.5)Temperatura (degC), Punto: (25.641, 62.5)Temperatura (degC), Punto: (27.821, 62.5)Temperatura (degC), Punto: (29.128, 62.5)Temperatura (degC), Punto: (29.564, 62.5)Temperatura (degC), Punto: (0, 125)Temperatura (degC), Punto: (15, 125)Temperatura (degC), Punto: (25.641, 125)Temperatura (degC), Punto: (27.821, 125)Temperatura (degC), Punto: (29.128, 125)Temperatura (degC), Punto: (29.564, 125)Temperatura (degC), Punto: (0, 187.5)Temperatura (degC), Punto: (15, 187.5)Temperatura (degC), Punto: (25.641, 187.5)Temperatura (degC), Punto: (27.821, 187.5)Temperatura (degC), Punto: (29.128, 187.5)Temperatura (degC), Punto: (29.564, 187.5)Temperatura (degC), Punto: (0, 250)Temperatura (degC), Punto: (15, 250)Temperatura (degC), Punto: (25.641, 250)Temperatura (degC), Punto: (27.821, 250)Temperatura (degC), Punto: (29.128, 250)Temperatura (degC), Punto: (29.564, 250)Temperatura (degC), Punto: (0, 312.5)Temperatura (degC), Punto: (15, 312.5)Temperatura (degC), Punto: (25.641, 312.5)Temperatura (degC), Punto: (27.821, 312.5)Temperatura (degC), Punto: (29.128, 312.5)Temperatura (degC), Punto: (29.564, 312.5)Temperatura (degC), Punto: (0, 375)Temperatura (degC), Punto: (15, 375)Temperatura (degC), Punto: (25.641, 375)Temperatura (degC), Punto: (27.821, 375)Temperatura (degC), Punto: (29.128, 375)Temperatura (degC), Punto: (29.564, 375)Temperatura (degC), Punto: (0, 437.5)Temperatura (degC), Punto: (15, 437.5)Temperatura (degC), Punto: (25.641, 437.5)Temperatura (degC), Punto: (27.821, 437.5)Temperatura (degC), Punto: (29.128, 437.5)Temperatura (degC), Punto: (29.564, 437.5)Temperatura (degC), Punto: (0, 468.75)Temperatura (degC), Punto: (15, 468.75)Temperatura (degC), Punto: (25.641, 468.75)Temperatura (degC), Punto: (27.821, 468.75)Temperatura (degC), Punto: (29.128, 468.75)Temperatura (degC), Punto: (29.564, 468.75)Temperatura (degC), Punto: (0, 492.19)Temperatura (degC), Punto: (15, 492.19)Temperatura (degC), Punto: (25.641, 492.19)Temperatura (degC), Punto: (27.821, 492.19)Temperatura (degC), Punto: (29.128, 492.19)Temperatura (degC), Punto: (29.564, 492.19)
18.000                   1.5000                   1.0000                   1.1000                   2000.0                   2500.0                   0.0000                   20.000                   20.000                   20.000                   20.001                   20.116                   20.213                   20.000                   20.000                   20.000                   20.001                   20.117                   20.213                   20.000                   20.000                   20.000                   20.001                   20.117                   20.213                   20.000                   20.000                   20.000                   20.000                   20.101                   20.192                   20.000                   20.000                   20.000                   20.000                   20.000                   20.010                   20.000                   20.000                   20.000                   20.000                   20.000                   20.000                   20.000                   20.000                   20.000                   20.000                   20.000                   20.000                   20.000                   20.000                   20.000                   20.000                   20.000                   20.000                   20.000                   20.000                   20.000                   20.000                   20.000                   20.000                   20.000                   20.000                   20.000                   20.000                   20.000                   20.000
18.000                   1.5000                   1.0000                   1.1000                   2000.0                   2500.0                   5.0000                   35.351                   89.631                   320.44                   419.52                   476.30                   487.74                   35.347                   89.611                   320.30                   418.87                   475.31                   486.73                   35.349                   89.614                   320.68                   420.47                   476.79                   488.14                   32.734                   79.206                   280.22                   366.62                   417.20                   427.69                   21.231                   25.533                   43.333                   49.889                   53.827                   55.030                   20.386                   21.838                   28.262                   30.440                   31.254                   31.422                   20.253                   21.232                   25.732                   27.291                   27.729                   27.754                   20.057                   20.274                   21.354                   21.890                   22.198                   22.238                   20.037                   20.184                   20.851                   21.100                   21.250                   21.274                   20.012                   20.045                   20.140                   20.160                   20.166                   20.168
18.000                   1.5000                   1.0000                   1.1000                   2000.0                   2500.0                   10.000                   115.77                   237.14                   597.50                   736.55                   811.47                   825.67                   115.67                   236.69                   594.25                   729.64                   802.51                   816.55                   115.65                   236.65                   593.05                   726.89                   799.55                   813.64                   100.69                   207.76                   527.10                   649.18                   712.12                   723.81                   29.302                   41.373                   70.728                   79.214                   84.640                   86.316                   22.765                   26.687                   35.998                   38.252                   39.320                   39.612                   21.674                   23.956                   28.818                   29.810                   30.172                   30.248                   20.404                   20.959                   22.217                   22.480                   22.632                   22.697                   20.277                   20.679                   21.506                   21.644                   21.697                   21.712                   20.092                   20.194                   20.414                   20.472                   20.505                   20.516
18.000                   1.5000                   1.0000                   1.1000                   2000.0                   2500.0                   15.000                   238.91                   388.98                   856.93                   1049.6                   1110.2                   1117.2                   238.46                   387.29                   832.38                   1021.1                   1086.9                   1095.4                   238.47                   387.44                   831.15                   1018.6                   1084.2                   1092.7                   208.36                   341.65                   689.02                   816.32                   881.41                   892.66                   46.795                   63.788                   96.237                   104.36                   109.30                   110.75                   26.883                   30.633                   35.845                   36.847                   37.441                   37.633                   23.741                   25.483                   27.362                   27.593                   27.705                   27.744                   20.969                   21.401                   21.843                   21.895                   21.928                   21.941                   20.672                   21.003                   21.372                   21.425                   21.453                   21.463                   20.278                   20.410                   20.592                   20.626                   20.645                   20.651
18.000                   1.5000                   1.0000                   1.1000                   2000.0                   2500.0                   20.000                   363.67                   527.63                   1076.4                   1170.2                   1189.3                   1190.1                   362.17                   522.11                   1046.1                   1148.8                   1170.5                   1171.7                   362.42                   522.65                   1040.8                   1143.6                   1165.4                   1166.6                   317.28                   451.20                   750.51                   844.70                   887.86                   895.08                   70.464                   87.714                   115.18                   121.11                   124.59                   125.63                   30.651                   33.314                   37.313                   38.104                   38.557                   38.700                   25.135                   26.063                   27.357                   27.557                   27.682                   27.718                   21.416                   21.643                   21.941                   22.002                   22.038                   22.050                   20.957                   21.116                   21.311                   21.349                   21.372                   21.379                   20.496                   20.596                   20.730                   20.758                   20.774                   20.779
18.000                   1.5000                   1.0000                   1.1000                   2000.0                   2500.0                   25.000                   475.53                   644.92                   1146.7                   1191.5                   1198.1                   1197.2                   472.28                   636.04                   1131.1                   1180.2                   1188.0                   1187.2                   472.92                   636.94                   1129.4                   1178.2                   1186.0                   1185.2                   409.45                   528.92                   774.89                   848.11                   882.51                   888.34                   94.941                   109.31                   131.72                   136.81                   139.89                   140.83                   33.550                   35.414                   38.165                   38.780                   39.152                   39.276                   25.838                   26.355                   26.986                   27.126                   27.221                   27.249                   21.706                   21.847                   22.061                   22.111                   22.141                   22.151                   21.102                   21.193                   21.335                   21.368                   21.389                   21.396                   20.677                   20.746                   20.853                   20.877                   20.892                   20.897
18.000                   1.5000                   1.0000                   1.1000                   2000.0                   2500.0                   30.000                   572.13                   743.51                   1173.7                   1196.4                   1197.5                   1195.7                   567.36                   732.26                   1166.1                   1190.9                   1192.6                   1191.0                   568.40                   733.69                   1166.0                   1190.2                   1191.8                   1190.2                   482.03                   584.99                   794.06                   857.46                   887.96                   893.13                   117.21                   129.13                   148.99                   153.79                   156.74                   157.65                   35.931                   37.310                   39.574                   40.156                   40.518                   40.639                   26.239                   26.533                   26.788                   26.949                   27.070                   27.101                   21.928                   22.035                   22.220                   22.268                   22.297                   22.307                   21.200                   21.270                   21.393                   21.424                   21.444                   21.451                   20.820                   20.874                   20.967                   20.990                   21.005                   21.009
18.000                   1.5000                   1.0000                   1.1000                   2000.0                   2500.0                   35.000                   652.36                   843.59                   1193.0                   1206.2                   1204.7                   1202.7                   647.06                   829.78                   1188.8                   1203.2                   1202.1                   1200.1                   648.37                   832.18                   1188.6                   1202.9                   1201.8                   1199.7                   539.27                   628.63                   817.31                   875.54                   903.73                   908.43                   137.27                   147.95                   166.63                   171.35                   174.30                   175.22                   38.134                   39.316                   41.441                   42.005                   42.366                   42.488                   26.541                   26.758                   27.138                   27.256                   27.331                   27.357                   22.123                   22.216                   22.391                   22.437                   22.466                   22.476                   21.293                   21.354                   21.469                   21.500                   21.520                   21.526                   20.941                   20.989                   21.077                   21.099                   21.113                   21.118
18.000                   1.5000                   1.0000                   1.1000                   2000.0                   2500.0                   40.000                   712.84                   943.91                   1205.6                   1213.6                   1210.9                   1208.6                   708.26                   930.98                   1203.0                   1211.7                   1209.2                   1207.0                   709.55                   933.93                   1203.0                   1211.6                   1209.0                   1206.8                   585.33                   664.82                   845.08                   899.79                   925.86                   930.09                   155.92                   166.03                   184.35                   189.08                   192.05                   192.97                   40.372                   41.511                   43.650                   44.220                   44.584                   44.708                   26.825                   27.036                   27.443                   27.560                   27.638                   27.664                   22.303                   22.392                   22.564                   22.610                   22.639                   22.649                   21.387                   21.446                   21.560                   21.590                   21.610                   21.616                   21.050                   21.096                   21.182                   21.205                   21.219                   21.223
18.000                   1.5000                   1.0000                   1.1000                   2000.0                   2500.0                   45.000                   759.19                   1029.2                   1217.8                   1222.6                   1219.0                   1216.6                   753.98                   1019.6                   1215.9                   1221.0                   1217.6                   1215.2                   755.74                   1022.3                   1216.1                   1221.2                   1217.7                   1215.3                   623.23                   697.05                   879.78                   930.92                   954.43                   958.10                   173.62                   183.53                   201.82                   206.59                   209.60                   210.52                   42.792                   43.950                   46.144                   46.728                   47.099                   47.225                   27.144                   27.368                   27.807                   27.926                   28.003                   28.029                   22.475                   22.565                   22.736                   22.783                   22.812                   22.822                   21.486                   21.545                   21.659                   21.690                   21.709                   21.716                   21.154                   21.200                   21.285                   21.308                   21.322                   21.326
18.000                   1.5000                   1.0000                   1.1000                   2000.0                   2500.0                   50.000                   834.01                   1094.8                   1232.0                   1234.9                   1230.7                   1228.2                   823.63                   1088.2                   1230.3                   1233.3                   1229.3                   1226.8                   827.81                   1090.6                   1230.9                   1233.8                   1229.7                   1227.2                   655.54                   727.79                   923.97                   971.56                   991.74                   994.59                   190.61                   200.50                   218.90                   223.73                   226.78                   227.71                   45.451                   46.643                   48.892                   49.488                   49.867                   49.995                   27.507                   27.743                   28.200                   28.322                   28.400                   28.427                   22.644                   22.734                   22.907                   22.953                   22.983                   22.993                   21.591                   21.651                   21.766                   21.796                   21.816                   21.823                   21.255                   21.302                   21.387                   21.410                   21.424                   21.428
18.000                   1.5000                   1.0000                   1.1000                   2000.0                   2500.0                   55.000                   944.66                   1145.6                   1250.2                   1251.8                   1247.2                   1244.5                   932.55                   1140.9                   1248.4                   1250.0                   1245.5                   1242.9                   938.18                   1143.0                   1249.3                   1250.9                   1246.3                   1243.7                   684.12                   761.66                   977.38                   1020.9                   1036.1                   1037.7                   207.03                   216.96                   235.53                   240.42                   243.51                   244.45                   48.360                   49.583                   51.883                   52.491                   52.878                   53.009                   27.913                   28.158                   28.625                   28.749                   28.829                   28.856                   22.810                   22.901                   23.076                   23.123                   23.153                   23.163                   21.702                   21.762                   21.877                   21.908                   21.928                   21.935                   21.357                   21.404                   21.489                   21.512                   21.526                   21.531
18.000                   1.5000                   1.0000                   1.1000                   2000.0                   2500.0                   60.000                   1041.0                   1191.3                   1274.2                   1274.4                   1269.2                   1266.4                   1030.3                   1187.7                   1272.2                   1272.5                   1267.3                   1264.6                   1035.6                   1189.5                   1273.2                   1273.4                   1268.3                   1265.5                   711.53                   805.34                   1031.5                   1067.3                   1077.3                   1077.6                   222.95                   232.92                   251.61                   256.54                   259.65                   260.59                   51.505                   52.754                   55.097                   55.715                   56.107                   56.240                   28.356                   28.608                   29.083                   29.209                   29.289                   29.317                   22.977                   23.069                   23.245                   23.292                   23.322                   23.332                   21.816                   21.877                   21.992                   22.024                   22.043                   22.050                   21.460                   21.507                   21.593                   21.615                   21.629                   21.634
18.000                   1.5000                   1.0000                   1.1000                   2000.0                   2500.0                   65.000                   1117.0                   1230.7                   1303.1                   1302.0                   1296.3                   1293.3                   1109.5                   1227.4                   1301.0                   1300.0                   1294.3                   1291.3                   1113.3                   1229.0                   1301.9                   1300.9                   1295.2                   1292.2                   742.76                   859.03                   1080.4                   1107.0                   1112.4                   1111.8                   238.07                   248.06                   266.78                   271.72                   274.83                   275.76                   54.992                   56.260                   58.632                   59.257                   59.654                   59.788                   28.861                   29.115                   29.595                   29.722                   29.803                   29.831                   23.145                   23.237                   23.414                   23.461                   23.492                   23.502                   21.936                   21.997                   22.113                   22.144                   22.164                   22.170                   21.566                   21.612                   21.698                   21.721                   21.735                   21.740
18.000                   1.5000                   1.0000                   1.1000                   2000.0                   2500.0                   70.000                   1173.7                   1267.0                   1332.6                   1330.5                   1324.1                   1320.9                   1168.1                   1264.0                   1330.6                   1328.6                   1322.3                   1319.1                   1170.8                   1265.3                   1331.3                   1329.2                   1322.9                   1319.7                   782.93                   916.79                   1118.3                   1138.0                   1140.5                   1139.4                   252.48                   262.45                   281.12                   286.04                   289.14                   290.07                   58.747                   60.028                   62.422                   63.052                   63.450                   63.585                   29.418                   29.674                   30.158                   30.286                   30.367                   30.394                   23.316                   23.409                   23.586                   23.633                   23.663                   23.674                   22.059                   22.120                   22.236                   22.267                   22.287                   22.294                   21.674                   21.720                   21.806                   21.829                   21.843                   21.848
18.000                   1.5000                   1.0000                   1.1000                   2000.0                   2500.0                   75.000                   1222.6                   1300.4                   1357.4                   1354.3                   1347.4                   1344.1                   1218.4                   1297.8                   1355.8                   1352.8                   1345.9                   1342.6                   1220.2                   1298.7                   1356.2                   1353.1                   1346.3                   1343.0                   830.36                   971.19                   1150.3                   1164.7                   1165.1                   1163.5                   266.40                   276.32                   294.88                   299.77                   302.85                   303.77                   62.637                   63.929                   66.338                   66.970                   67.371                   67.506                   30.013                   30.271                   30.757                   30.885                   30.967                   30.994                   23.490                   23.583                   23.760                   23.808                   23.838                   23.848                   22.185                   22.245                   22.361                   22.393                   22.412                   22.419                   21.784                   21.830                   21.916                   21.938                   21.952                   21.957