% Model:              batchmodel_COIL_N_18_COIL_kr_2.25_COIL_kh_1_COIL_kturn_1.7_FUNZ_freq_10000_FUNZ_I_eff_1000.mph
% Version:            COMSOL 5.6.0.280
% Date:               Feb 1 2022, 20:28
% Table:              Tabella 1 - GRIGLIA_T
% COIL_N                 COIL_kr                  COIL_kh                  COIL_kturn               FUNZ_freq                FUNZ_I_eff               Time (s)                 Temperatura (degC), Punto: (0, 0)Temperatura (degC), Punto: (15, 0)Temperatura (degC), Punto: (28.051, 0)Temperatura (degC), Punto: (29.025, 0)Temperatura (degC), Punto: (29.61, 0)Temperatura (degC), Punto: (29.805, 0)Temperatura (degC), Punto: (0, 62.5)Temperatura (degC), Punto: (15, 62.5)Temperatura (degC), Punto: (28.051, 62.5)Temperatura (degC), Punto: (29.025, 62.5)Temperatura (degC), Punto: (29.61, 62.5)Temperatura (degC), Punto: (29.805, 62.5)Temperatura (degC), Punto: (0, 125)Temperatura (degC), Punto: (15, 125)Temperatura (degC), Punto: (28.051, 125)Temperatura (degC), Punto: (29.025, 125)Temperatura (degC), Punto: (29.61, 125)Temperatura (degC), Punto: (29.805, 125)Temperatura (degC), Punto: (0, 187.5)Temperatura (degC), Punto: (15, 187.5)Temperatura (degC), Punto: (28.051, 187.5)Temperatura (degC), Punto: (29.025, 187.5)Temperatura (degC), Punto: (29.61, 187.5)Temperatura (degC), Punto: (29.805, 187.5)Temperatura (degC), Punto: (0, 250)Temperatura (degC), Punto: (15, 250)Temperatura (degC), Punto: (28.051, 250)Temperatura (degC), Punto: (29.025, 250)Temperatura (degC), Punto: (29.61, 250)Temperatura (degC), Punto: (29.805, 250)Temperatura (degC), Punto: (0, 312.5)Temperatura (degC), Punto: (15, 312.5)Temperatura (degC), Punto: (28.051, 312.5)Temperatura (degC), Punto: (29.025, 312.5)Temperatura (degC), Punto: (29.61, 312.5)Temperatura (degC), Punto: (29.805, 312.5)Temperatura (degC), Punto: (0, 375)Temperatura (degC), Punto: (15, 375)Temperatura (degC), Punto: (28.051, 375)Temperatura (degC), Punto: (29.025, 375)Temperatura (degC), Punto: (29.61, 375)Temperatura (degC), Punto: (29.805, 375)Temperatura (degC), Punto: (0, 437.5)Temperatura (degC), Punto: (15, 437.5)Temperatura (degC), Punto: (28.051, 437.5)Temperatura (degC), Punto: (29.025, 437.5)Temperatura (degC), Punto: (29.61, 437.5)Temperatura (degC), Punto: (29.805, 437.5)Temperatura (degC), Punto: (0, 468.75)Temperatura (degC), Punto: (15, 468.75)Temperatura (degC), Punto: (28.051, 468.75)Temperatura (degC), Punto: (29.025, 468.75)Temperatura (degC), Punto: (29.61, 468.75)Temperatura (degC), Punto: (29.805, 468.75)Temperatura (degC), Punto: (0, 492.19)Temperatura (degC), Punto: (15, 492.19)Temperatura (degC), Punto: (28.051, 492.19)Temperatura (degC), Punto: (29.025, 492.19)Temperatura (degC), Punto: (29.61, 492.19)Temperatura (degC), Punto: (29.805, 492.19)
18.000                   2.2500                   1.0000                   1.7000                   10000                    1000.0                   0.0000                   20.000                   20.000                   20.000                   20.000                   20.037                   20.157                   20.000                   20.000                   20.000                   20.000                   20.037                   20.157                   20.000                   20.000                   20.000                   20.000                   20.037                   20.158                   20.000                   20.000                   20.000                   20.000                   20.037                   20.158                   20.000                   20.000                   20.000                   20.000                   20.036                   20.156                   20.000                   20.000                   20.000                   20.000                   20.011                   20.075                   20.000                   20.000                   20.000                   20.000                   20.000                   20.007                   20.000                   20.000                   20.000                   20.000                   20.000                   20.001                   20.000                   20.000                   20.000                   20.000                   20.000                   20.001                   20.000                   20.000                   20.000                   20.000                   20.000                   20.000
18.000                   2.2500                   1.0000                   1.7000                   10000                    1000.0                   5.0000                   25.093                   41.364                   139.15                   151.45                   158.38                   160.28                   24.780                   39.970                   130.47                   142.29                   148.97                   150.91                   24.831                   40.276                   134.81                   147.94                   155.26                   157.11                   24.780                   40.076                   131.98                   143.90                   150.45                   152.25                   24.415                   38.412                   121.02                   131.83                   138.01                   139.84                   22.395                   30.188                   83.708                   91.978                   95.884                   96.984                   20.755                   23.542                   51.197                   58.927                   63.348                   64.516                   20.099                   20.448                   23.418                   23.954                   24.276                   24.369                   20.037                   20.145                   20.794                   20.902                   20.975                   21.003                   20.015                   20.052                   20.248                   20.274                   20.291                   20.297
18.000                   2.2500                   1.0000                   1.7000                   10000                    1000.0                   10.000                   53.952                   90.759                   211.37                   225.03                   233.51                   235.81                   52.011                   86.497                   201.36                   214.54                   222.63                   224.83                   52.513                   87.836                   205.73                   219.08                   227.11                   229.38                   52.083                   86.864                   202.73                   216.06                   224.26                   226.50                   49.563                   81.675                   189.51                   202.06                   209.88                   212.01                   36.870                   55.675                   116.24                   122.31                   125.74                   126.77                   25.401                   31.705                   49.979                   51.052                   51.348                   51.419                   20.635                   21.307                   23.208                   23.345                   23.412                   23.434                   20.245                   20.480                   21.230                   21.314                   21.364                   21.382                   20.106                   20.203                   20.495                   20.527                   20.546                   20.553
18.000                   2.2500                   1.0000                   1.7000                   10000                    1000.0                   15.000                   99.743                   146.86                   291.27                   307.87                   317.82                   320.38                   96.414                   141.76                   282.29                   298.26                   307.63                   310.12                   97.334                   143.33                   286.25                   302.52                   311.12                   313.61                   96.135                   141.25                   280.73                   296.62                   305.89                   308.33                   90.404                   132.25                   259.53                   273.79                   282.34                   284.54                   60.321                   84.244                   156.28                   163.96                   167.45                   168.42                   32.552                   40.532                   68.769                   72.740                   73.504                   73.517                   21.517                   22.356                   25.090                   25.389                   25.521                   25.549                   20.613                   20.948                   22.031                   22.155                   22.227                   22.252                   20.286                   20.421                   20.750                   20.781                   20.800                   20.806
18.000                   2.2500                   1.0000                   1.7000                   10000                    1000.0                   20.000                   152.27                   205.64                   364.05                   381.94                   392.70                   395.37                   148.33                   200.40                   355.83                   373.44                   383.97                   386.63                   149.40                   201.91                   358.86                   376.76                   387.09                   389.76                   147.18                   198.59                   351.61                   368.91                   379.27                   381.88                   137.98                   185.96                   328.21                   344.29                   354.02                   356.49                   87.601                   113.95                   186.95                   194.43                   198.53                   199.71                   40.647                   48.880                   70.626                   72.794                   73.468                   73.602                   22.652                   23.556                   25.915                   26.125                   26.230                   26.258                   21.083                   21.459                   22.430                   22.521                   22.574                   22.592                   20.535                   20.690                   21.047                   21.080                   21.100                   21.107
18.000                   2.2500                   1.0000                   1.7000                   10000                    1000.0                   25.000                   206.40                   263.81                   431.42                   450.09                   461.10                   463.78                   202.31                   258.88                   425.14                   444.02                   455.29                   457.94                   203.39                   260.25                   426.54                   444.58                   455.48                   458.11                   200.32                   256.34                   422.52                   441.57                   452.93                   455.64                   187.83                   240.45                   395.39                   412.71                   423.01                   425.64                   116.06                   143.65                   216.14                   223.20                   227.12                   228.24                   48.505                   55.950                   71.412                   72.262                   72.930                   73.108                   23.872                   24.714                   26.559                   26.718                   26.811                   26.842                   21.574                   21.929                   22.618                   22.651                   22.662                   22.665                   20.824                   20.993                   21.374                   21.409                   21.431                   21.438
18.000                   2.2500                   1.0000                   1.7000                   10000                    1000.0                   30.000                   260.52                   321.47                   504.15                   525.05                   537.08                   539.92                   256.48                   316.62                   496.37                   516.98                   528.99                   531.68                   257.57                   318.11                   499.78                   519.86                   531.33                   533.96                   254.08                   314.29                   497.92                   519.46                   532.00                   534.84                   238.70                   295.63                   467.11                   486.43                   497.27                   500.05                   145.64                   175.09                   258.06                   266.56                   270.52                   271.63                   56.820                   64.999                   90.823                   93.919                   94.699                   94.777                   25.182                   25.985                   28.148                   28.381                   28.495                   28.522                   22.077                   22.408                   23.148                   23.208                   23.236                   23.246                   21.147                   21.320                   21.695                   21.728                   21.748                   21.754
18.000                   2.2500                   1.0000                   1.7000                   10000                    1000.0                   35.000                   313.88                   378.43                   576.12                   599.85                   613.80                   616.88                   309.97                   373.81                   569.40                   592.86                   606.63                   609.71                   311.09                   375.33                   572.19                   595.83                   609.59                   612.67                   307.51                   371.63                   568.49                   591.98                   605.74                   608.81                   289.62                   350.52                   536.04                   557.94                   571.00                   573.95                   175.88                   206.40                   288.63                   297.22                   302.48                   303.94                   64.906                   72.151                   87.610                   88.682                   89.311                   89.510                   26.580                   27.332                   29.089                   29.247                   29.339                   29.369                   22.600                   22.918                   23.661                   23.730                   23.772                   23.786                   21.501                   21.676                   22.067                   22.102                   22.124                   22.131
18.000                   2.2500                   1.0000                   1.7000                   10000                    1000.0                   40.000                   366.50                   434.88                   651.34                   679.28                   695.75                   699.18                   362.80                   430.69                   646.13                   673.21                   688.97                   692.48                   363.92                   432.12                   647.41                   674.69                   690.10                   693.52                   360.34                   428.50                   643.51                   670.29                   685.86                   689.26                   340.21                   405.28                   607.87                   632.31                   647.10                   650.36                   206.71                   239.33                   332.69                   342.98                   349.01                   350.59                   73.276                   80.655                   100.58                   102.72                   103.71                   104.01                   28.143                   28.993                   31.425                   31.680                   31.812                   31.847                   23.185                   23.534                   24.443                   24.529                   24.580                   24.597                   21.882                   22.062                   22.465                   22.502                   22.524                   22.531
18.000                   2.2500                   1.0000                   1.7000                   10000                    1000.0                   45.000                   416.58                   487.66                   715.48                   747.41                   766.04                   769.74                   413.35                   484.45                   713.83                   744.31                   762.01                   765.93                   414.35                   485.48                   710.71                   740.31                   756.94                   760.65                   410.90                   482.14                   709.72                   739.95                   757.48                   761.25                   389.22                   457.82                   674.04                   700.61                   716.69                   720.32                   238.06                   272.95                   375.48                   386.63                   392.85                   394.43                   82.472                   90.507                   115.68                   118.90                   120.06                   120.42                   30.030                   31.049                   34.153                   34.484                   34.643                   34.673                   23.896                   24.294                   25.354                   25.452                   25.508                   25.526                   22.319                   22.505                   22.921                   22.958                   22.981                   22.989
18.000                   2.2500                   1.0000                   1.7000                   10000                    1000.0                   50.000                   464.86                   537.85                   771.81                   807.66                   828.41                   832.38                   462.29                   535.90                   773.92                   807.40                   826.67                   830.93                   463.10                   536.43                   766.86                   798.49                   816.12                   820.05                   459.84                   533.45                   769.02                   802.93                   822.45                   826.54                   437.01                   508.54                   734.50                   762.97                   780.45                   784.46                   269.43                   306.19                   413.18                   424.58                   430.84                   432.40                   92.131                   100.74                   127.69                   131.00                   132.19                   132.50                   32.095                   33.276                   36.819                   37.189                   37.369                   37.396                   24.676                   25.118                   26.233                   26.323                   26.372                   26.387                   22.788                   22.982                   23.409                   23.447                   23.470                   23.478
18.000                   2.2500                   1.0000                   1.7000                   10000                    1000.0                   55.000                   509.01                   582.21                   831.18                   868.04                   888.19                   891.98                   507.14                   581.24                   834.61                   870.40                   889.78                   893.70                   507.73                   581.45                   829.17                   863.95                   882.56                   886.33                   504.70                   578.79                   829.85                   865.88                   885.45                   889.31                   481.10                   553.72                   790.15                   822.64                   841.11                   844.97                   300.33                   338.22                   445.17                   456.49                   463.06                   464.70                   101.33                   109.09                   129.21                   131.26                   132.14                   132.40                   34.273                   35.381                   38.194                   38.453                   38.588                   38.618                   25.546                   25.972                   26.961                   27.041                   27.086                   27.101                   23.332                   23.528                   23.958                   23.996                   24.019                   24.027
18.000                   2.2500                   1.0000                   1.7000                   10000                    1000.0                   60.000                   550.86                   623.70                   888.93                   925.35                   944.18                   947.66                   549.65                   623.49                   892.53                   928.98                   947.67                   951.13                   550.03                   623.47                   889.43                   925.71                   944.39                   947.86                   547.24                   621.09                   888.46                   924.98                   943.79                   947.27                   523.14                   596.01                   844.95                   880.31                   899.15                   902.76                   330.65                   369.41                   476.31                   487.64                   494.50                   496.23                   110.18                   116.88                   130.80                   131.83                   132.47                   132.68                   36.444                   37.432                   39.524                   39.688                   39.785                   39.817                   26.443                   26.839                   27.702                   27.775                   27.819                   27.834                   23.909                   24.106                   24.536                   24.574                   24.597                   24.605
18.000                   2.2500                   1.0000                   1.7000                   10000                    1000.0                   65.000                   589.72                   661.66                   942.30                   976.52                   993.62                   996.69                   589.04                   661.89                   944.73                   978.82                   995.77                   998.80                   589.25                   661.77                   943.24                   977.32                   994.29                   997.34                   586.72                   659.65                   942.10                   976.44                   993.56                   996.64                   562.50                   634.65                   899.90                   935.03                   953.16                   956.52                   360.00                   399.38                   507.93                   519.56                   526.59                   528.34                   118.48                   124.29                   136.51                   137.53                   138.16                   138.37                   38.555                   39.420                   41.258                   41.414                   41.509                   41.541                   27.357                   27.720                   28.526                   28.599                   28.643                   28.658                   24.525                   24.721                   25.149                   25.187                   25.210                   25.217
18.000                   2.2500                   1.0000                   1.7000                   10000                    1000.0                   70.000                   624.02                   694.11                   974.03                   1003.5                   1017.2                   1019.6                   623.69                   694.49                   975.26                   1004.4                   1018.1                   1020.4                   623.79                   694.36                   974.20                   1003.4                   1017.1                   1019.4                   621.53                   692.49                   973.83                   1003.4                   1017.2                   1019.5                   597.83                   668.69                   940.45                   972.55                   988.64                   991.53                   387.84                   427.54                   536.99                   548.73                   555.82                   557.56                   126.63                   131.94                   143.55                   144.58                   145.21                   145.42                   40.628                   41.415                   43.133                   43.286                   43.379                   43.410                   28.303                   28.644                   29.419                   29.490                   29.534                   29.549                   25.183                   25.377                   25.799                   25.836                   25.858                   25.866
18.000                   2.2500                   1.0000                   1.7000                   10000                    1000.0                   75.000                   655.49                   723.76                   997.22                   1021.6                   1032.1                   1033.7                   655.42                   724.23                   997.21                   1021.3                   1031.6                   1033.2                   655.45                   724.07                   996.02                   1020.1                   1030.5                   1032.1                   653.44                   722.45                   996.77                   1021.2                   1031.7                   1033.3                   630.68                   699.91                   973.15                   1001.4                   1015.0                   1017.3                   414.71                   454.56                   564.27                   576.03                   583.11                   584.83                   134.77                   139.75                   151.03                   152.07                   152.70                   152.91                   42.694                   43.422                   45.060                   45.211                   45.302                   45.333                   29.272                   29.595                   30.345                   30.416                   30.459                   30.474                   25.867                   26.057                   26.471                   26.508                   26.530                   26.537