% Model:              batchmodel_COIL_N_18_COIL_kr_2.25_COIL_kh_3_COIL_kturn_1.7_FUNZ_freq_2000_FUNZ_I_eff_1000.mph
% Version:            COMSOL 5.6.0.280
% Date:               Feb 2 2022, 00:58
% Table:              Tabella 1 - GRIGLIA_T
% COIL_N                 COIL_kr                  COIL_kh                  COIL_kturn               FUNZ_freq                FUNZ_I_eff               Time (s)                 Temperatura (degC), Punto: (0, 0)Temperatura (degC), Punto: (15, 0)Temperatura (degC), Punto: (25.641, 0)Temperatura (degC), Punto: (27.821, 0)Temperatura (degC), Punto: (29.128, 0)Temperatura (degC), Punto: (29.564, 0)Temperatura (degC), Punto: (0, 62.5)Temperatura (degC), Punto: (15, 62.5)Temperatura (degC), Punto: (25.641, 62.5)Temperatura (degC), Punto: (27.821, 62.5)Temperatura (degC), Punto: (29.128, 62.5)Temperatura (degC), Punto: (29.564, 62.5)Temperatura (degC), Punto: (0, 125)Temperatura (degC), Punto: (15, 125)Temperatura (degC), Punto: (25.641, 125)Temperatura (degC), Punto: (27.821, 125)Temperatura (degC), Punto: (29.128, 125)Temperatura (degC), Punto: (29.564, 125)Temperatura (degC), Punto: (0, 187.5)Temperatura (degC), Punto: (15, 187.5)Temperatura (degC), Punto: (25.641, 187.5)Temperatura (degC), Punto: (27.821, 187.5)Temperatura (degC), Punto: (29.128, 187.5)Temperatura (degC), Punto: (29.564, 187.5)Temperatura (degC), Punto: (0, 250)Temperatura (degC), Punto: (15, 250)Temperatura (degC), Punto: (25.641, 250)Temperatura (degC), Punto: (27.821, 250)Temperatura (degC), Punto: (29.128, 250)Temperatura (degC), Punto: (29.564, 250)Temperatura (degC), Punto: (0, 312.5)Temperatura (degC), Punto: (15, 312.5)Temperatura (degC), Punto: (25.641, 312.5)Temperatura (degC), Punto: (27.821, 312.5)Temperatura (degC), Punto: (29.128, 312.5)Temperatura (degC), Punto: (29.564, 312.5)Temperatura (degC), Punto: (0, 375)Temperatura (degC), Punto: (15, 375)Temperatura (degC), Punto: (25.641, 375)Temperatura (degC), Punto: (27.821, 375)Temperatura (degC), Punto: (29.128, 375)Temperatura (degC), Punto: (29.564, 375)Temperatura (degC), Punto: (0, 437.5)Temperatura (degC), Punto: (15, 437.5)Temperatura (degC), Punto: (25.641, 437.5)Temperatura (degC), Punto: (27.821, 437.5)Temperatura (degC), Punto: (29.128, 437.5)Temperatura (degC), Punto: (29.564, 437.5)Temperatura (degC), Punto: (0, 468.75)Temperatura (degC), Punto: (15, 468.75)Temperatura (degC), Punto: (25.641, 468.75)Temperatura (degC), Punto: (27.821, 468.75)Temperatura (degC), Punto: (29.128, 468.75)Temperatura (degC), Punto: (29.564, 468.75)Temperatura (degC), Punto: (0, 492.19)Temperatura (degC), Punto: (15, 492.19)Temperatura (degC), Punto: (25.641, 492.19)Temperatura (degC), Punto: (27.821, 492.19)Temperatura (degC), Punto: (29.128, 492.19)Temperatura (degC), Punto: (29.564, 492.19)
18.000                   2.2500                   3.0000                   1.7000                   2000.0                   1000.0                   0.0000                   20.000                   20.000                   20.000                   20.000                   20.000                   20.003                   20.000                   20.000                   20.000                   20.000                   20.000                   20.004                   20.000                   20.000                   20.000                   20.000                   20.000                   20.004                   20.000                   20.000                   20.000                   20.000                   20.000                   20.003                   20.000                   20.000                   20.000                   20.000                   20.000                   20.004                   20.000                   20.000                   20.000                   20.000                   20.000                   20.003                   20.000                   20.000                   20.000                   20.000                   20.000                   20.004                   20.000                   20.000                   20.000                   20.000                   20.000                   20.004                   20.000                   20.000                   20.000                   20.000                   20.000                   20.003                   20.000                   20.000                   20.000                   20.000                   20.000                   20.001
18.000                   2.2500                   3.0000                   1.7000                   2000.0                   1000.0                   5.0000                   20.396                   21.247                   25.221                   26.715                   27.643                   27.952                   20.424                   21.349                   25.711                   27.367                   28.403                   28.749                   20.410                   21.299                   25.471                   27.047                   28.029                   28.356                   20.404                   21.276                   25.362                   26.902                   27.861                   28.181                   20.427                   21.358                   25.729                   27.371                   28.387                   28.721                   20.398                   21.252                   25.246                   26.747                   27.681                   27.992                   20.420                   21.336                   25.648                   27.283                   28.305                   28.646                   20.413                   21.314                   25.562                   27.173                   28.179                   28.515                   20.379                   21.217                   25.206                   26.727                   27.679                   27.996                   20.320                   20.922                   23.436                   24.348                   24.904                   25.086
18.000                   2.2500                   3.0000                   1.7000                   2000.0                   1000.0                   10.000                   22.003                   23.841                   28.914                   30.361                   31.260                   31.573                   22.130                   24.133                   29.740                   31.366                   32.386                   32.740                   22.066                   23.987                   29.326                   30.862                   31.819                   32.153                   22.038                   23.924                   29.150                   30.649                   31.584                   31.910                   22.143                   24.164                   29.824                   31.466                   32.499                   32.858                   22.009                   23.857                   28.958                   30.414                   31.320                   31.635                   22.113                   24.093                   29.621                   31.215                   32.210                   32.556                   22.069                   24.016                   29.447                   31.014                   31.993                   32.334                   21.912                   23.741                   28.956                   30.504                   31.491                   31.835                   21.613                   22.960                   26.452                   27.419                   28.006                   28.204
18.000                   2.2500                   3.0000                   1.7000                   2000.0                   1000.0                   15.000                   24.205                   26.700                   32.147                   33.517                   34.377                   34.678                   24.452                   27.166                   33.183                   34.728                   35.706                   36.047                   24.329                   26.935                   32.666                   34.121                   35.037                   35.358                   24.275                   26.833                   32.444                   33.865                   34.760                   35.072                   24.475                   27.210                   33.280                   34.843                   35.836                   36.186                   24.219                   26.725                   32.203                   33.583                   34.450                   34.752                   24.419                   27.103                   33.033                   34.544                   35.495                   35.827                   24.326                   26.965                   32.792                   34.276                   35.211                   35.539                   24.006                   26.495                   32.134                   33.625                   34.584                   34.922                   23.416                   25.294                   29.256                   30.228                   30.818                   31.018
18.000                   2.2500                   3.0000                   1.7000                   2000.0                   1000.0                   20.000                   26.897                   29.659                   35.043                   36.356                   37.185                   37.466                   27.259                   30.254                   36.177                   37.648                   38.583                   38.901                   27.081                   29.962                   35.613                   36.999                   37.875                   38.174                   27.002                   29.831                   35.367                   36.724                   37.582                   37.873                   27.291                   30.304                   36.256                   37.733                   38.674                   39.002                   26.917                   29.692                   35.104                   36.425                   37.259                   37.542                   27.212                   30.176                   36.015                   37.453                   38.362                   38.672                   27.053                   29.966                   35.700                   37.111                   38.003                   38.307                   26.564                   29.330                   34.920                   36.348                   37.267                   37.587                   25.728                   27.895                   32.017                   32.978                   33.555                   33.749
18.000                   2.2500                   3.0000                   1.7000                   2000.0                   1000.0                   25.000                   29.736                   32.627                   37.841                   39.108                   39.910                   40.172                   30.205                   33.329                   39.038                   40.448                   41.346                   41.640                   29.979                   32.990                   38.448                   39.779                   40.621                   40.898                   29.875                   32.834                   38.186                   39.490                   40.316                   40.586                   30.244                   33.384                   39.097                   40.500                   41.394                   41.701                   29.764                   32.666                   37.904                   39.178                   39.984                   40.248                   30.145                   33.237                   38.865                   40.241                   41.113                   41.400                   29.912                   32.950                   38.472                   39.820                   40.675                   40.956                   29.264                   32.168                   37.594                   38.964                   39.845                   40.146                   28.217                   30.573                   34.753                   35.700                   36.262                   36.447
18.000                   2.2500                   3.0000                   1.7000                   2000.0                   1000.0                   30.000                   32.679                   35.531                   40.582                   41.828                   42.616                   42.865                   33.220                   36.299                   41.824                   43.211                   44.096                   44.376                   32.970                   35.942                   41.233                   42.546                   43.379                   43.644                   32.847                   35.767                   40.957                   42.241                   43.055                   43.312                   33.265                   36.358                   41.885                   43.264                   44.146                   44.445                   32.711                   35.574                   40.648                   41.900                   42.694                   42.945                   33.145                   36.190                   41.619                   42.963                   43.812                   44.084                   32.826                   35.815                   41.139                   42.458                   43.294                   43.561                   32.066                   34.941                   40.205                   41.549                   42.411                   42.701                   30.907                   33.293                   37.431                   38.367                   38.919                   39.100
18.000                   2.2500                   3.0000                   1.7000                   2000.0                   1000.0                   35.000                   35.622                   38.436                   43.322                   44.547                   45.322                   45.558                   36.236                   39.268                   44.609                   45.973                   46.846                   47.112                   35.961                   38.893                   44.019                   45.313                   46.137                   46.390                   35.819                   38.701                   43.727                   44.992                   45.795                   46.038                   36.286                   39.332                   44.672                   46.028                   46.897                   47.189                   35.658                   38.482                   43.391                   44.623                   45.403                   45.641                   36.146                   39.142                   44.374                   45.685                   46.512                   46.769                   35.741                   38.681                   43.807                   45.095                   45.912                   46.166                   34.867                   37.713                   42.817                   44.134                   44.978                   45.256                   33.597                   36.012                   40.108                   41.033                   41.576                   41.753
18.000                   2.2500                   3.0000                   1.7000                   2000.0                   1000.0                   40.000                   38.566                   41.341                   46.063                   47.266                   48.028                   48.251                   39.251                   42.238                   47.394                   48.736                   49.595                   49.849                   38.951                   41.845                   46.804                   48.080                   48.895                   49.135                   38.791                   41.634                   46.498                   47.744                   48.534                   48.764                   39.306                   42.306                   47.459                   48.792                   49.649                   49.933                   38.605                   41.390                   46.135                   47.345                   48.113                   48.338                   39.147                   42.095                   47.129                   48.406                   49.211                   49.453                   38.656                   41.546                   46.475                   47.732                   48.531                   48.770                   37.669                   40.486                   45.429                   46.719                   47.544                   47.811                   36.287                   38.731                   42.786                   43.700                   44.234                   44.406
18.000                   2.2500                   3.0000                   1.7000                   2000.0                   1000.0                   45.000                   41.361                   44.059                   48.681                   49.870                   50.624                   50.840                   42.101                   45.013                   50.083                   51.413                   52.265                   52.510                   41.794                   44.610                   49.468                   50.729                   51.534                   51.767                   41.616                   44.381                   49.144                   50.375                   51.155                   51.379                   42.154                   45.079                   50.155                   51.487                   52.349                   52.633                   41.399                   44.105                   48.748                   49.944                   50.702                   50.921                   41.981                   44.852                   49.795                   51.066                   51.869                   52.104                   41.401                   44.212                   49.043                   50.288                   51.078                   51.311                   40.408                   43.168                   48.053                   49.346                   50.176                   50.440                   39.050                   41.477                   45.522                   46.438                   46.974                   47.147
18.000                   2.2500                   3.0000                   1.7000                   2000.0                   1000.0                   50.000                   44.157                   46.777                   51.300                   52.475                   53.219                   53.429                   44.950                   47.789                   52.771                   54.090                   54.934                   55.172                   44.637                   47.375                   52.133                   53.378                   54.173                   54.399                   44.441                   47.128                   51.789                   53.006                   53.777                   53.994                   45.001                   47.853                   52.851                   54.181                   55.049                   55.333                   44.193                   46.820                   51.361                   52.542                   53.292                   53.504                   44.814                   47.608                   52.462                   53.725                   54.526                   54.755                   44.147                   46.877                   51.611                   52.844                   53.626                   53.851                   43.148                   45.850                   50.677                   51.972                   52.809                   53.070                   41.812                   44.223                   48.258                   49.176                   49.714                   49.887
18.000                   2.2500                   3.0000                   1.7000                   2000.0                   1000.0                   55.000                   46.953                   49.495                   53.919                   55.079                   55.814                   56.018                   47.800                   50.564                   55.459                   56.768                   57.603                   57.834                   47.479                   50.141                   54.797                   56.027                   56.812                   57.031                   47.267                   49.875                   54.435                   55.637                   56.399                   56.609                   47.848                   50.627                   55.546                   56.875                   57.749                   58.032                   46.987                   49.535                   53.974                   55.141                   55.881                   56.087                   47.648                   50.365                   55.128                   56.385                   57.183                   57.405                   46.892                   49.543                   54.179                   55.400                   56.173                   56.392                   45.888                   48.532                   53.302                   54.599                   55.441                   55.699                   44.575                   46.969                   50.993                   51.914                   52.454                   52.628
18.000                   2.2500                   3.0000                   1.7000                   2000.0                   1000.0                   60.000                   49.748                   52.213                   56.537                   57.684                   58.410                   58.607                   50.649                   53.340                   58.147                   59.445                   60.273                   60.495                   50.322                   52.906                   57.462                   58.676                   59.451                   59.663                   50.092                   52.622                   57.081                   58.268                   59.020                   59.224                   50.696                   53.400                   58.242                   59.570                   60.449                   60.732                   49.781                   52.250                   56.587                   57.740                   58.471                   58.670                   50.481                   53.122                   57.795                   59.044                   59.841                   60.056                   49.638                   52.209                   56.747                   57.956                   58.721                   58.932                   48.628                   51.213                   55.926                   57.226                   58.073                   58.329                   47.337                   49.716                   53.729                   54.653                   55.194                   55.369
18.000                   2.2500                   3.0000                   1.7000                   2000.0                   1000.0                   65.000                   52.544                   54.931                   59.156                   60.288                   61.005                   61.196                   53.499                   56.115                   60.836                   62.122                   62.942                   63.157                   53.165                   55.671                   60.126                   61.326                   62.090                   62.295                   52.917                   55.369                   59.727                   60.899                   61.642                   61.839                   53.543                   56.174                   60.938                   62.264                   63.149                   63.431                   52.575                   54.965                   59.200                   60.338                   61.060                   61.253                   53.315                   55.878                   60.461                   61.703                   62.498                   62.707                   52.383                   54.874                   59.315                   60.511                   61.268                   61.473                   51.368                   53.895                   58.550                   59.852                   60.705                   60.959                   50.100                   52.462                   56.465                   57.391                   57.933                   58.109
18.000                   2.2500                   3.0000                   1.7000                   2000.0                   1000.0                   70.000                   56.025                   58.541                   63.117                   64.353                   65.140                   65.364                   56.984                   59.727                   64.796                   66.185                   67.073                   67.323                   56.655                   59.289                   64.097                   65.401                   66.236                   66.475                   56.405                   58.986                   63.696                   64.973                   65.785                   66.016                   57.027                   59.786                   64.899                   66.322                   67.264                   67.569                   56.055                   58.576                   63.164                   64.406                   65.197                   65.423                   56.784                   59.478                   64.420                   65.769                   66.634                   66.878                   55.713                   58.334                   63.136                   64.441                   65.271                   65.511                   54.467                   57.067                   61.945                   63.310                   64.202                   64.475                   53.005                   55.333                   59.308                   60.242                   60.797                   60.978
18.000                   2.2500                   3.0000                   1.7000                   2000.0                   1000.0                   75.000                   59.506                   62.152                   67.078                   68.418                   69.274                   69.532                   60.469                   63.339                   68.756                   70.247                   71.204                   71.490                   60.144                   62.906                   68.068                   69.477                   70.382                   70.655                   59.894                   62.604                   67.665                   69.046                   69.928                   70.194                   60.511                   63.397                   68.859                   70.379                   71.380                   71.707                   59.535                   62.186                   67.128                   68.474                   69.335                   69.594                   60.254                   63.077                   68.379                   69.834                   70.770                   71.050                   59.044                   61.793                   66.956                   68.370                   69.274                   69.549                   57.567                   60.239                   65.340                   66.768                   67.698                   67.992                   55.909                   58.204                   62.152                   63.094                   63.660                   63.846