% Model:              batchmodel_COIL_N_18_COIL_kr_1.5_COIL_kh_1_COIL_kturn_1.1_FUNZ_freq_2000_FUNZ_I_eff_1000.mph
% Version:            COMSOL 5.6.0.280
% Date:               Feb 1 2022, 11:51
% Table:              Tabella 1 - GRIGLIA_T
% COIL_N                 COIL_kr                  COIL_kh                  COIL_kturn               FUNZ_freq                FUNZ_I_eff               Time (s)                 Temperatura (degC), Punto: (0, 0)Temperatura (degC), Punto: (15, 0)Temperatura (degC), Punto: (25.641, 0)Temperatura (degC), Punto: (27.821, 0)Temperatura (degC), Punto: (29.128, 0)Temperatura (degC), Punto: (29.564, 0)Temperatura (degC), Punto: (0, 62.5)Temperatura (degC), Punto: (15, 62.5)Temperatura (degC), Punto: (25.641, 62.5)Temperatura (degC), Punto: (27.821, 62.5)Temperatura (degC), Punto: (29.128, 62.5)Temperatura (degC), Punto: (29.564, 62.5)Temperatura (degC), Punto: (0, 125)Temperatura (degC), Punto: (15, 125)Temperatura (degC), Punto: (25.641, 125)Temperatura (degC), Punto: (27.821, 125)Temperatura (degC), Punto: (29.128, 125)Temperatura (degC), Punto: (29.564, 125)Temperatura (degC), Punto: (0, 187.5)Temperatura (degC), Punto: (15, 187.5)Temperatura (degC), Punto: (25.641, 187.5)Temperatura (degC), Punto: (27.821, 187.5)Temperatura (degC), Punto: (29.128, 187.5)Temperatura (degC), Punto: (29.564, 187.5)Temperatura (degC), Punto: (0, 250)Temperatura (degC), Punto: (15, 250)Temperatura (degC), Punto: (25.641, 250)Temperatura (degC), Punto: (27.821, 250)Temperatura (degC), Punto: (29.128, 250)Temperatura (degC), Punto: (29.564, 250)Temperatura (degC), Punto: (0, 312.5)Temperatura (degC), Punto: (15, 312.5)Temperatura (degC), Punto: (25.641, 312.5)Temperatura (degC), Punto: (27.821, 312.5)Temperatura (degC), Punto: (29.128, 312.5)Temperatura (degC), Punto: (29.564, 312.5)Temperatura (degC), Punto: (0, 375)Temperatura (degC), Punto: (15, 375)Temperatura (degC), Punto: (25.641, 375)Temperatura (degC), Punto: (27.821, 375)Temperatura (degC), Punto: (29.128, 375)Temperatura (degC), Punto: (29.564, 375)Temperatura (degC), Punto: (0, 437.5)Temperatura (degC), Punto: (15, 437.5)Temperatura (degC), Punto: (25.641, 437.5)Temperatura (degC), Punto: (27.821, 437.5)Temperatura (degC), Punto: (29.128, 437.5)Temperatura (degC), Punto: (29.564, 437.5)Temperatura (degC), Punto: (0, 468.75)Temperatura (degC), Punto: (15, 468.75)Temperatura (degC), Punto: (25.641, 468.75)Temperatura (degC), Punto: (27.821, 468.75)Temperatura (degC), Punto: (29.128, 468.75)Temperatura (degC), Punto: (29.564, 468.75)Temperatura (degC), Punto: (0, 492.19)Temperatura (degC), Punto: (15, 492.19)Temperatura (degC), Punto: (25.641, 492.19)Temperatura (degC), Punto: (27.821, 492.19)Temperatura (degC), Punto: (29.128, 492.19)Temperatura (degC), Punto: (29.564, 492.19)
18.000                   1.5000                   1.0000                   1.1000                   2000.0                   1000.0                   0.0000                   20.000                   20.000                   20.000                   20.000                   20.010                   20.047                   20.000                   20.000                   20.000                   20.000                   20.010                   20.047                   20.000                   20.000                   20.000                   20.000                   20.010                   20.047                   20.000                   20.000                   20.000                   20.000                   20.008                   20.039                   20.000                   20.000                   20.000                   20.000                   20.000                   20.001                   20.000                   20.000                   20.000                   20.000                   20.000                   20.000                   20.000                   20.000                   20.000                   20.000                   20.000                   20.000                   20.000                   20.000                   20.000                   20.000                   20.000                   20.000                   20.000                   20.000                   20.000                   20.000                   20.000                   20.000                   20.000                   20.000                   20.000                   20.000                   20.000                   20.000
18.000                   1.5000                   1.0000                   1.1000                   2000.0                   1000.0                   5.0000                   23.537                   34.469                   81.858                   99.452                   111.07                   114.30                   23.536                   34.468                   81.860                   99.455                   111.07                   114.31                   23.537                   34.468                   81.863                   99.461                   111.08                   114.32                   22.850                   31.914                   72.073                   87.202                   97.299                   100.19                   20.261                   21.011                   24.132                   25.262                   26.011                   26.273                   20.033                   20.133                   20.556                   20.711                   20.813                   20.850                   20.010                   20.042                   20.176                   20.225                   20.258                   20.270                   20.005                   20.021                   20.087                   20.111                   20.127                   20.133                   20.004                   20.016                   20.070                   20.089                   20.102                   20.106                   20.004                   20.015                   20.062                   20.079                   20.090                   20.094
18.000                   1.5000                   1.0000                   1.1000                   2000.0                   1000.0                   10.000                   42.395                   68.553                   134.52                   154.36                   167.22                   170.63                   42.395                   68.553                   134.52                   154.36                   167.23                   170.64                   42.386                   68.540                   134.51                   154.35                   167.21                   170.62                   37.758                   59.274                   114.73                   131.68                   142.81                   145.86                   21.824                   23.723                   28.285                   29.592                   30.441                   30.730                   20.224                   20.471                   21.076                   21.252                   21.366                   21.406                   20.066                   20.142                   20.328                   20.382                   20.418                   20.430                   20.032                   20.069                   20.159                   20.186                   20.203                   20.209                   20.025                   20.055                   20.126                   20.147                   20.161                   20.165                   20.023                   20.049                   20.112                   20.130                   20.142                   20.146
18.000                   1.5000                   1.0000                   1.1000                   2000.0                   1000.0                   15.000                   74.312                   108.95                   183.62                   205.28                   219.07                   222.60                   74.311                   108.95                   183.62                   205.28                   219.08                   222.60                   74.268                   108.90                   183.56                   205.22                   219.02                   222.54                   62.677                   91.145                   153.70                   172.17                   184.12                   187.28                   24.842                   27.504                   32.872                   34.322                   35.250                   35.563                   20.575                   20.915                   21.614                   21.807                   21.931                   21.973                   20.164                   20.264                   20.474                   20.532                   20.570                   20.583                   20.078                   20.127                   20.227                   20.254                   20.272                   20.278                   20.062                   20.100                   20.178                   20.200                   20.214                   20.219                   20.056                   20.090                   20.158                   20.177                   20.188                   20.193
18.000                   1.5000                   1.0000                   1.1000                   2000.0                   1000.0                   20.000                   112.81                   151.67                   232.21                   255.54                   270.25                   273.88                   112.81                   151.67                   232.21                   255.54                   270.25                   273.89                   112.68                   151.53                   232.06                   255.39                   270.10                   273.73                   92.585                   124.56                   191.97                   211.82                   224.55                   227.84                   29.193                   32.332                   38.293                   39.874                   40.878                   41.215                   21.060                   21.455                   22.222                   22.430                   22.563                   22.609                   20.289                   20.402                   20.626                   20.687                   20.726                   20.740                   20.136                   20.190                   20.295                   20.323                   20.342                   20.348                   20.107                   20.148                   20.230                   20.252                   20.266                   20.271                   20.096                   20.133                   20.204                   20.222                   20.234                   20.239
18.000                   1.5000                   1.0000                   1.1000                   2000.0                   1000.0                   25.000                   153.18                   195.05                   280.94                   305.95                   321.58                   325.33                   153.18                   195.05                   280.94                   305.95                   321.59                   325.34                   152.94                   194.81                   280.67                   305.68                   321.31                   325.06                   123.93                   158.41                   230.26                   251.48                   265.01                   268.41                   34.217                   37.737                   44.240                   45.947                   47.028                   47.390                   21.612                   22.049                   22.879                   23.102                   23.245                   23.293                   20.425                   20.548                   20.784                   20.848                   20.889                   20.903                   20.198                   20.255                   20.364                   20.393                   20.412                   20.419                   20.154                   20.198                   20.282                   20.304                   20.319                   20.324                   20.139                   20.178                   20.249                   20.269                   20.281                   20.285
18.000                   1.5000                   1.0000                   1.1000                   2000.0                   1000.0                   30.000                   195.08                   238.89                   329.95                   356.74                   373.34                   377.20                   195.08                   238.89                   329.95                   356.75                   373.35                   377.20                   194.68                   238.48                   329.52                   356.30                   372.90                   376.76                   156.58                   192.74                   268.90                   291.56                   305.92                   309.43                   40.424                   44.231                   51.241                   53.076                   54.236                   54.624                   22.288                   22.757                   23.647                   23.886                   24.038                   24.090                   20.580                   20.708                   20.954                   21.021                   21.064                   21.078                   20.265                   20.324                   20.436                   20.466                   20.486                   20.492                   20.206                   20.250                   20.335                   20.358                   20.373                   20.378                   20.185                   20.224                   20.297                   20.316                   20.328                   20.332
18.000                   1.5000                   1.0000                   1.1000                   2000.0                   1000.0                   35.000                   236.48                   282.13                   378.18                   406.68                   424.15                   428.08                   236.48                   282.13                   378.18                   406.68                   424.15                   428.09                   235.88                   281.53                   377.56                   406.05                   423.51                   427.45                   189.22                   227.02                   307.53                   331.64                   346.83                   350.44                   47.740                   51.820                   59.331                   61.294                   62.535                   62.948                   23.131                   23.632                   24.583                   24.838                   25.001                   25.057                   20.755                   20.889                   21.145                   21.214                   21.259                   21.274                   20.337                   20.397                   20.512                   20.544                   20.563                   20.570                   20.260                   20.305                   20.391                   20.415                   20.430                   20.435                   20.233                   20.272                   20.346                   20.365                   20.377                   20.381
18.000                   1.5000                   1.0000                   1.1000                   2000.0                   1000.0                   40.000                   277.54                   324.97                   425.88                   456.03                   474.31                   478.31                   277.54                   324.97                   425.88                   456.03                   474.31                   478.31                   276.72                   324.15                   425.05                   455.18                   473.46                   477.46                   221.86                   261.27                   346.15                   371.73                   387.73                   391.42                   55.810                   60.154                   68.164                   70.255                   71.578                   72.017                   24.088                   24.620                   25.634                   25.906                   26.079                   26.138                   20.945                   21.083                   21.349                   21.421                   21.468                   21.484                   20.412                   20.474                   20.592                   20.624                   20.644                   20.651                   20.315                   20.361                   20.449                   20.473                   20.488                   20.493                   20.283                   20.322                   20.396                   20.416                   20.428                   20.432
18.000                   1.5000                   1.0000                   1.1000                   2000.0                   1000.0                   45.000                   318.60                   367.81                   473.58                   505.38                   524.47                   528.53                   318.60                   367.81                   473.58                   505.38                   524.47                   528.53                   317.56                   366.78                   472.53                   504.32                   523.41                   527.46                   254.49                   295.52                   384.78                   411.83                   428.63                   432.40                   63.880                   68.488                   76.996                   79.217                   80.621                   81.085                   25.045                   25.609                   26.684                   26.973                   27.157                   27.220                   21.134                   21.277                   21.554                   21.629                   21.677                   21.693                   20.487                   20.550                   20.671                   20.704                   20.725                   20.732                   20.371                   20.418                   20.507                   20.531                   20.546                   20.552                   20.333                   20.372                   20.446                   20.466                   20.479                   20.483
18.000                   1.5000                   1.0000                   1.1000                   2000.0                   1000.0                   50.000                   358.25                   409.37                   520.38                   554.13                   574.16                   578.29                   358.24                   409.36                   520.38                   554.12                   574.16                   578.29                   356.99                   408.12                   519.13                   552.87                   572.89                   577.02                   286.78                   329.63                   423.64                   452.30                   469.93                   473.79                   73.138                   78.020                   87.064                   89.428                   90.923                   91.416                   26.248                   26.847                   27.991                   28.298                   28.494                   28.561                   21.354                   21.503                   21.790                   21.868                   21.918                   21.935                   20.569                   20.633                   20.758                   20.791                   20.813                   20.820                   20.431                   20.478                   20.568                   20.593                   20.609                   20.614                   20.385                   20.425                   20.500                   20.520                   20.532                   20.536
18.000                   1.5000                   1.0000                   1.1000                   2000.0                   1000.0                   55.000                   397.18                   450.28                   566.73                   602.57                   623.61                   627.81                   397.17                   450.27                   566.72                   602.56                   623.61                   627.81                   395.70                   448.82                   565.29                   601.11                   622.14                   626.35                   318.89                   363.65                   462.62                   492.97                   511.43                   515.38                   82.996                   88.160                   97.758                   100.27                   101.86                   102.39                   27.576                   28.211                   29.427                   29.754                   29.963                   30.034                   21.590                   21.744                   22.043                   22.124                   22.176                   22.194                   20.653                   20.720                   20.847                   20.882                   20.904                   20.912                   20.492                   20.540                   20.632                   20.657                   20.673                   20.678                   20.439                   20.479                   20.555                   20.574                   20.587                   20.591
18.000                   1.5000                   1.0000                   1.1000                   2000.0                   1000.0                   60.000                   436.11                   491.18                   613.07                   651.01                   673.06                   677.34                   436.09                   491.17                   613.06                   651.00                   673.06                   677.34                   434.41                   489.52                   611.44                   649.35                   671.40                   675.68                   351.00                   397.67                   501.60                   533.64                   552.94                   556.97                   92.855                   98.300                   108.45                   111.12                   112.80                   113.36                   28.904                   29.576                   30.864                   31.210                   31.431                   31.507                   21.825                   21.986                   22.296                   22.380                   22.434                   22.452                   20.738                   20.806                   20.937                   20.972                   20.995                   21.003                   20.553                   20.601                   20.695                   20.720                   20.737                   20.742                   20.493                   20.533                   20.609                   20.629                   20.642                   20.647
18.000                   1.5000                   1.0000                   1.1000                   2000.0                   1000.0                   65.000                   471.16                   527.09                   651.46                   691.43                   714.67                   719.11                   471.14                   527.08                   651.44                   691.42                   714.66                   719.10                   469.29                   525.30                   649.72                   689.60                   712.79                   717.24                   381.75                   430.34                   539.27                   573.21                   593.34                   597.48                   104.22                   110.02                   120.86                   123.72                   125.53                   126.12                   30.675                   31.391                   32.765                   33.135                   33.371                   33.452                   22.121                   22.288                   22.612                   22.700                   22.756                   22.775                   20.834                   20.904                   21.039                   21.075                   21.099                   21.107                   20.620                   20.670                   20.765                   20.791                   20.808                   20.813                   20.551                   20.592                   20.669                   20.690                   20.702                   20.707
18.000                   1.5000                   1.0000                   1.1000                   2000.0                   1000.0                   70.000                   504.79                   561.18                   686.94                   728.93                   753.41                   758.06                   504.78                   561.17                   686.93                   728.92                   753.40                   758.05                   502.77                   559.27                   685.12                   726.93                   751.32                   755.96                   412.00                   462.52                   576.46                   612.39                   633.35                   637.60                   116.14                   122.30                   133.90                   136.97                   138.92                   139.54                   32.608                   33.370                   34.836                   35.231                   35.483                   35.569                   22.439                   22.613                   22.951                   23.043                   23.101                   23.122                   20.934                   21.006                   21.145                   21.182                   21.207                   21.215                   20.690                   20.740                   20.838                   20.864                   20.881                   20.887                   20.612                   20.653                   20.731                   20.752                   20.765                   20.769
18.000                   1.5000                   1.0000                   1.1000                   2000.0                   1000.0                   75.000                   538.43                   595.27                   722.43                   766.43                   792.16                   797.00                   538.42                   595.25                   722.42                   766.41                   792.15                   796.99                   536.25                   593.25                   720.53                   764.26                   789.85                   794.68                   442.25                   494.69                   613.65                   651.56                   673.36                   677.72                   128.06                   134.59                   146.94                   150.22                   152.30                   152.97                   34.541                   35.350                   36.906                   37.326                   37.595                   37.686                   22.756                   22.938                   23.290                   23.386                   23.447                   23.468                   21.034                   21.108                   21.251                   21.290                   21.315                   21.323                   20.759                   20.811                   20.910                   20.937                   20.954                   20.960                   20.672                   20.714                   20.793                   20.814                   20.827                   20.831