% Model:              batchmodel_COIL_N_12_COIL_kr_2.25_COIL_kh_1_COIL_kturn_1.4_FUNZ_freq_2000_FUNZ_I_eff_1000.mph
% Version:            COMSOL 5.6.0.280
% Date:               Feb 1 2022, 17:40
% Table:              Tabella 1 - GRIGLIA_T
% COIL_N                 COIL_kr                  COIL_kh                  COIL_kturn               FUNZ_freq                FUNZ_I_eff               Time (s)                 Temperatura (degC), Punto: (0, 0)Temperatura (degC), Punto: (15, 0)Temperatura (degC), Punto: (25.641, 0)Temperatura (degC), Punto: (27.821, 0)Temperatura (degC), Punto: (29.128, 0)Temperatura (degC), Punto: (29.564, 0)Temperatura (degC), Punto: (0, 62.5)Temperatura (degC), Punto: (15, 62.5)Temperatura (degC), Punto: (25.641, 62.5)Temperatura (degC), Punto: (27.821, 62.5)Temperatura (degC), Punto: (29.128, 62.5)Temperatura (degC), Punto: (29.564, 62.5)Temperatura (degC), Punto: (0, 125)Temperatura (degC), Punto: (15, 125)Temperatura (degC), Punto: (25.641, 125)Temperatura (degC), Punto: (27.821, 125)Temperatura (degC), Punto: (29.128, 125)Temperatura (degC), Punto: (29.564, 125)Temperatura (degC), Punto: (0, 187.5)Temperatura (degC), Punto: (15, 187.5)Temperatura (degC), Punto: (25.641, 187.5)Temperatura (degC), Punto: (27.821, 187.5)Temperatura (degC), Punto: (29.128, 187.5)Temperatura (degC), Punto: (29.564, 187.5)Temperatura (degC), Punto: (0, 250)Temperatura (degC), Punto: (15, 250)Temperatura (degC), Punto: (25.641, 250)Temperatura (degC), Punto: (27.821, 250)Temperatura (degC), Punto: (29.128, 250)Temperatura (degC), Punto: (29.564, 250)Temperatura (degC), Punto: (0, 312.5)Temperatura (degC), Punto: (15, 312.5)Temperatura (degC), Punto: (25.641, 312.5)Temperatura (degC), Punto: (27.821, 312.5)Temperatura (degC), Punto: (29.128, 312.5)Temperatura (degC), Punto: (29.564, 312.5)Temperatura (degC), Punto: (0, 375)Temperatura (degC), Punto: (15, 375)Temperatura (degC), Punto: (25.641, 375)Temperatura (degC), Punto: (27.821, 375)Temperatura (degC), Punto: (29.128, 375)Temperatura (degC), Punto: (29.564, 375)Temperatura (degC), Punto: (0, 437.5)Temperatura (degC), Punto: (15, 437.5)Temperatura (degC), Punto: (25.641, 437.5)Temperatura (degC), Punto: (27.821, 437.5)Temperatura (degC), Punto: (29.128, 437.5)Temperatura (degC), Punto: (29.564, 437.5)Temperatura (degC), Punto: (0, 468.75)Temperatura (degC), Punto: (15, 468.75)Temperatura (degC), Punto: (25.641, 468.75)Temperatura (degC), Punto: (27.821, 468.75)Temperatura (degC), Punto: (29.128, 468.75)Temperatura (degC), Punto: (29.564, 468.75)Temperatura (degC), Punto: (0, 492.19)Temperatura (degC), Punto: (15, 492.19)Temperatura (degC), Punto: (25.641, 492.19)Temperatura (degC), Punto: (27.821, 492.19)Temperatura (degC), Punto: (29.128, 492.19)Temperatura (degC), Punto: (29.564, 492.19)
12.000                   2.2500                   1.0000                   1.4000                   2000.0                   1000.0                   0.0000                   20.000                   20.000                   20.000                   20.000                   20.007                   20.035                   20.000                   20.000                   20.000                   20.000                   20.007                   20.035                   20.000                   20.000                   20.000                   20.000                   20.007                   20.033                   20.000                   20.000                   20.000                   20.000                   20.001                   20.011                   20.000                   20.000                   20.000                   20.000                   20.000                   20.001                   20.000                   20.000                   20.000                   20.000                   20.000                   20.000                   20.000                   20.000                   20.000                   20.000                   20.000                   20.000                   20.000                   20.000                   20.000                   20.000                   20.000                   20.000                   20.000                   20.000                   20.000                   20.000                   20.000                   20.000                   20.000                   20.000                   20.000                   20.000                   20.000                   20.000
12.000                   2.2500                   1.0000                   1.4000                   2000.0                   1000.0                   5.0000                   22.741                   30.006                   60.872                   72.583                   79.760                   81.861                   22.747                   30.037                   60.949                   72.599                   79.978                   82.143                   22.548                   29.367                   58.215                   68.879                   75.395                   77.362                   21.125                   24.116                   36.880                   41.450                   43.899                   44.626                   20.442                   21.664                   26.720                   28.300                   28.939                   29.138                   20.297                   21.165                   25.098                   26.343                   26.638                   26.655                   20.048                   20.165                   20.600                   20.666                   20.649                   20.686                   20.030                   20.107                   20.449                   20.592                   20.695                   20.727                   20.019                   20.072                   20.311                   20.408                   20.474                   20.499                   20.005                   20.016                   20.057                   20.072                   20.083                   20.086
12.000                   2.2500                   1.0000                   1.4000                   2000.0                   1000.0                   10.000                   36.157                   52.270                   91.394                   103.13                   110.43                   112.54                   36.202                   52.359                   91.519                   103.23                   110.62                   112.75                   34.981                   50.109                   87.167                   98.373                   105.38                   107.42                   26.727                   33.392                   49.791                   54.646                   57.434                   58.362                   22.474                   24.900                   30.368                   31.760                   32.370                   32.489                   21.649                   23.393                   27.571                   28.687                   29.001                   29.053                   20.302                   20.547                   21.058                   21.196                   21.280                   21.295                   20.177                   20.338                   20.719                   20.834                   20.901                   20.919                   20.107                   20.210                   20.443                   20.506                   20.545                   20.559                   20.037                   20.065                   20.132                   20.152                   20.166                   20.170
12.000                   2.2500                   1.0000                   1.4000                   2000.0                   1000.0                   15.000                   56.601                   76.826                   119.27                   131.32                   139.07                   141.27                   56.680                   76.933                   119.35                   131.35                   139.08                   141.27                   53.827                   72.808                   112.81                   124.14                   131.47                   133.57                   35.444                   43.795                   60.988                   65.603                   68.382                   69.258                   25.345                   28.017                   32.839                   33.916                   34.449                   34.601                   23.434                   25.232                   28.433                   29.022                   29.243                   29.289                   20.679                   20.927                   21.311                   21.390                   21.435                   21.448                   20.381                   20.547                   20.837                   20.905                   20.946                   20.958                   20.221                   20.324                   20.502                   20.543                   20.569                   20.578                   20.094                   20.134                   20.209                   20.228                   20.241                   20.245
12.000                   2.2500                   1.0000                   1.4000                   2000.0                   1000.0                   20.000                   80.481                   102.65                   148.41                   161.55                   169.83                   172.12                   80.349                   102.22                   146.54                   158.96                   166.76                   168.92                   75.897                   96.792                   139.85                   152.03                   159.57                   161.72                   46.545                   56.330                   76.811                   82.323                   85.123                   85.944                   29.285                   32.796                   40.240                   42.210                   42.950                   43.097                   25.896                   28.405                   34.250                   35.808                   36.229                   36.291                   21.195                   21.478                   21.989                   22.128                   22.217                   22.236                   20.658                   20.881                   21.398                   21.582                   21.714                   21.755                   20.363                   20.489                   20.775                   20.870                   20.936                   20.960                   20.174                   20.217                   20.293                   20.311                   20.323                   20.327
12.000                   2.2500                   1.0000                   1.4000                   2000.0                   1000.0                   25.000                   105.46                   128.95                   177.31                   191.21                   199.92                   202.28                   105.01                   127.95                   174.22                   187.20                   195.29                   197.51                   98.970                   121.12                   166.47                   179.29                   187.10                   189.29                   58.562                   69.159                   90.666                   96.327                   99.241                   100.09                   33.544                   37.460                   45.437                   47.448                   48.225                   48.388                   28.467                   31.304                   37.569                   39.189                   39.613                   39.679                   21.796                   22.109                   22.686                   22.839                   22.931                   22.953                   20.962                   21.220                   21.802                   21.996                   22.132                   22.174                   20.516                   20.655                   20.973                   21.074                   21.140                   21.163                   20.265                   20.310                   20.386                   20.405                   20.416                   20.420
12.000                   2.2500                   1.0000                   1.4000                   2000.0                   1000.0                   30.000                   130.89                   155.22                   204.34                   218.09                   226.82                   229.17                   130.22                   154.14                   202.51                   216.14                   224.86                   227.21                   122.34                   145.19                   191.18                   203.99                   212.14                   214.37                   70.808                   81.303                   100.95                   105.96                   109.03                   110.00                   37.576                   40.976                   46.476                   47.573                   48.149                   48.325                   30.655                   32.903                   36.327                   36.854                   37.056                   37.101                   22.426                   22.712                   23.143                   23.228                   23.275                   23.289                   21.245                   21.461                   21.798                   21.859                   21.887                   21.895                   20.661                   20.778                   20.969                   21.007                   21.028                   21.034                   20.364                   20.410                   20.489                   20.508                   20.521                   20.525
12.000                   2.2500                   1.0000                   1.4000                   2000.0                   1000.0                   35.000                   156.55                   181.63                   231.96                   246.02                   254.84                   257.17                   155.89                   180.90                   231.80                   246.28                   255.45                   257.87                   145.81                   169.39                   216.88                   230.18                   238.57                   240.84                   83.333                   94.107                   114.98                   120.48                   123.58                   124.56                   41.726                   45.180                   51.408                   52.896                   53.571                   53.767                   32.866                   35.171                   39.507                   40.423                   40.700                   40.735                   23.087                   23.371                   23.842                   23.958                   24.033                   24.048                   21.519                   21.729                   22.103                   22.199                   22.257                   22.272                   20.808                   20.921                   21.124                   21.179                   21.216                   21.230                   20.470                   20.518                   20.602                   20.623                   20.637                   20.642
12.000                   2.2500                   1.0000                   1.4000                   2000.0                   1000.0                   40.000                   182.47                   208.28                   260.59                   275.38                   284.76                   287.21                   181.87                   207.73                   260.37                   275.31                   284.77                   287.25                   169.20                   193.32                   242.03                   255.76                   264.50                   266.82                   95.588                   106.08                   125.92                   131.13                   134.34                   135.35                   45.248                   48.096                   52.761                   53.789                   54.357                   54.536                   34.282                   35.922                   38.376                   38.792                   38.961                   39.000                   23.697                   23.935                   24.300                   24.380                   24.428                   24.442                   21.721                   21.881                   22.123                   22.172                   22.199                   22.207                   20.933                   21.024                   21.171                   21.204                   21.224                   21.231                   20.578                   20.624                   20.705                   20.725                   20.738                   20.742
12.000                   2.2500                   1.0000                   1.4000                   2000.0                   1000.0                   45.000                   208.51                   235.23                   290.00                   305.66                   315.60                   318.16                   207.90                   234.63                   289.24                   304.76                   314.59                   317.12                   192.50                   217.21                   267.44                   281.70                   290.78                   293.16                   107.70                   117.99                   137.28                   142.36                   145.66                   146.68                   48.615                   51.038                   54.859                   55.668                   56.182                   56.346                   35.453                   36.619                   38.111                   38.315                   38.443                   38.482                   24.265                   24.462                   24.760                   24.824                   24.864                   24.879                   21.887                   22.003                   22.162                   22.189                   22.204                   22.209                   21.049                   21.123                   21.236                   21.258                   21.268                   21.271                   20.683                   20.728                   20.805                   20.824                   20.836                   20.840
12.000                   2.2500                   1.0000                   1.4000                   2000.0                   1000.0                   50.000                   234.82                   262.68                   320.29                   336.90                   347.36                   350.01                   233.98                   261.69                   318.56                   334.80                   345.03                   347.61                   215.79                   241.28                   293.46                   308.35                   317.78                   320.21                   120.29                   130.80                   150.84                   156.15                   159.52                   160.54                   52.693                   55.257                   59.671                   60.668                   61.229                   61.384                   37.148                   38.429                   40.534                   40.927                   41.104                   41.147                   24.896                   25.097                   25.437                   25.521                   25.576                   25.594                   22.086                   22.203                   22.403                   22.455                   22.490                   22.500                   21.188                   21.266                   21.406                   21.441                   21.463                   21.472                   20.797                   20.841                   20.916                   20.935                   20.946                   20.950
12.000                   2.2500                   1.0000                   1.4000                   2000.0                   1000.0                   55.000                   261.37                   290.49                   351.19                   368.79                   379.74                   382.45                   260.13                   288.88                   348.22                   365.26                   375.89                   378.52                   239.10                   265.54                   319.98                   335.57                   345.33                   347.81                   133.38                   144.53                   166.39                   172.19                   175.66                   176.66                   57.529                   60.717                   66.846                   68.332                   69.017                   69.168                   39.442                   41.343                   45.234                   46.089                   46.380                   46.433                   25.604                   25.853                   26.327                   26.457                   26.544                   26.565                   22.328                   22.489                   22.836                   22.947                   23.024                   23.045                   21.352                   21.454                   21.672                   21.742                   21.794                   21.815                   20.919                   20.963                   21.039                   21.057                   21.069                   21.073
12.000                   2.2500                   1.0000                   1.4000                   2000.0                   1000.0                   60.000                   287.91                   318.28                   382.02                   400.60                   412.01                   414.80                   286.27                   316.06                   377.88                   395.70                   406.73                   409.42                   262.41                   289.80                   346.52                   362.80                   372.90                   375.42                   146.53                   158.30                   181.97                   188.25                   191.81                   192.80                   62.439                   66.253                   74.076                   76.040                   76.845                   76.994                   41.799                   44.321                   49.976                   51.284                   51.687                   51.750                   26.325                   26.622                   27.230                   27.406                   27.525                   27.549                   22.578                   22.782                   23.273                   23.443                   23.561                   23.593                   21.520                   21.644                   21.938                   22.041                   22.121                   22.155                   21.043                   21.087                   21.163                   21.182                   21.193                   21.197
12.000                   2.2500                   1.0000                   1.4000                   2000.0                   1000.0                   65.000                   314.27                   345.69                   411.53                   430.67                   442.37                   445.19                   312.31                   343.17                   407.36                   425.91                   437.34                   440.08                   285.79                   314.20                   373.27                   390.24                   400.71                   403.28                   160.60                   173.01                   198.07                   204.68                   208.36                   209.35                   68.823                   73.291                   82.386                   84.603                   85.479                   85.634                   45.371                   48.537                   55.520                   57.113                   57.613                   57.689                   27.316                   27.676                   28.412                   28.624                   28.763                   28.788                   22.952                   23.207                   23.809                   24.013                   24.156                   24.193                   21.738                   21.880                   22.202                   22.310                   22.390                   22.422                   21.192                   21.237                   21.314                   21.333                   21.344                   21.348
12.000                   2.2500                   1.0000                   1.4000                   2000.0                   1000.0                   70.000                   340.64                   373.10                   441.03                   460.75                   472.72                   475.58                   338.35                   370.29                   436.85                   456.12                   467.94                   470.74                   309.16                   338.60                   400.01                   417.68                   428.52                   431.15                   174.67                   187.72                   214.17                   221.10                   224.91                   225.90                   75.208                   80.329                   90.696                   93.167                   94.113                   94.274                   48.942                   52.754                   61.064                   62.943                   63.539                   63.628                   28.306                   28.730                   29.595                   29.842                   30.000                   30.028                   23.326                   23.632                   24.344                   24.583                   24.750                   24.793                   21.956                   22.116                   22.467                   22.579                   22.659                   22.689                   21.340                   21.387                   21.465                   21.484                   21.495                   21.499
12.000                   2.2500                   1.0000                   1.4000                   2000.0                   1000.0                   75.000                   365.87                   399.18                   468.77                   488.91                   501.07                   503.95                   363.55                   396.48                   465.26                   485.17                   497.35                   500.19                   331.98                   362.32                   425.78                   444.04                   455.21                   457.88                   189.12                   202.68                   230.20                   237.39                   241.33                   242.32                   82.202                   87.707                   98.730                   101.32                   102.30                   102.47                   53.110                   57.363                   66.513                   68.563                   69.218                   69.319                   29.538                   29.998                   30.920                   31.180                   31.344                   31.373                   23.779                   24.117                   24.892                   25.149                   25.328                   25.375                   22.217                   22.388                   22.757                   22.872                   22.954                   22.983                   21.524                   21.572                   21.651                   21.669                   21.681                   21.685