% Model:              batchmodel_COIL_N_12_COIL_kr_3_COIL_kh_3_COIL_kturn_1.1_FUNZ_freq_6000_FUNZ_I_eff_4000.mph
% Version:            COMSOL 5.6.0.280
% Date:               Feb 2 2022, 04:30
% Table:              Tabella 1 - GRIGLIA_T
% COIL_N                 COIL_kr                  COIL_kh                  COIL_kturn               FUNZ_freq                FUNZ_I_eff               Time (s)                 Temperatura (degC), Punto: (0, 0)Temperatura (degC), Punto: (15, 0)Temperatura (degC), Punto: (27.483, 0)Temperatura (degC), Punto: (28.742, 0)Temperatura (degC), Punto: (29.497, 0)Temperatura (degC), Punto: (29.748, 0)Temperatura (degC), Punto: (0, 62.5)Temperatura (degC), Punto: (15, 62.5)Temperatura (degC), Punto: (27.483, 62.5)Temperatura (degC), Punto: (28.742, 62.5)Temperatura (degC), Punto: (29.497, 62.5)Temperatura (degC), Punto: (29.748, 62.5)Temperatura (degC), Punto: (0, 125)Temperatura (degC), Punto: (15, 125)Temperatura (degC), Punto: (27.483, 125)Temperatura (degC), Punto: (28.742, 125)Temperatura (degC), Punto: (29.497, 125)Temperatura (degC), Punto: (29.748, 125)Temperatura (degC), Punto: (0, 187.5)Temperatura (degC), Punto: (15, 187.5)Temperatura (degC), Punto: (27.483, 187.5)Temperatura (degC), Punto: (28.742, 187.5)Temperatura (degC), Punto: (29.497, 187.5)Temperatura (degC), Punto: (29.748, 187.5)Temperatura (degC), Punto: (0, 250)Temperatura (degC), Punto: (15, 250)Temperatura (degC), Punto: (27.483, 250)Temperatura (degC), Punto: (28.742, 250)Temperatura (degC), Punto: (29.497, 250)Temperatura (degC), Punto: (29.748, 250)Temperatura (degC), Punto: (0, 312.5)Temperatura (degC), Punto: (15, 312.5)Temperatura (degC), Punto: (27.483, 312.5)Temperatura (degC), Punto: (28.742, 312.5)Temperatura (degC), Punto: (29.497, 312.5)Temperatura (degC), Punto: (29.748, 312.5)Temperatura (degC), Punto: (0, 375)Temperatura (degC), Punto: (15, 375)Temperatura (degC), Punto: (27.483, 375)Temperatura (degC), Punto: (28.742, 375)Temperatura (degC), Punto: (29.497, 375)Temperatura (degC), Punto: (29.748, 375)Temperatura (degC), Punto: (0, 437.5)Temperatura (degC), Punto: (15, 437.5)Temperatura (degC), Punto: (27.483, 437.5)Temperatura (degC), Punto: (28.742, 437.5)Temperatura (degC), Punto: (29.497, 437.5)Temperatura (degC), Punto: (29.748, 437.5)Temperatura (degC), Punto: (0, 468.75)Temperatura (degC), Punto: (15, 468.75)Temperatura (degC), Punto: (27.483, 468.75)Temperatura (degC), Punto: (28.742, 468.75)Temperatura (degC), Punto: (29.497, 468.75)Temperatura (degC), Punto: (29.748, 468.75)Temperatura (degC), Punto: (0, 492.19)Temperatura (degC), Punto: (15, 492.19)Temperatura (degC), Punto: (27.483, 492.19)Temperatura (degC), Punto: (28.742, 492.19)Temperatura (degC), Punto: (29.497, 492.19)Temperatura (degC), Punto: (29.748, 492.19)
12.000                   3.0000                   3.0000                   1.1000                   6000.0                   4000.0                   0.0000                   20.000                   20.000                   20.000                   20.000                   20.107                   20.268                   20.000                   20.000                   20.000                   20.000                   20.107                   20.268                   20.000                   20.000                   20.000                   20.000                   20.107                   20.268                   20.000                   20.000                   20.000                   20.000                   20.107                   20.268                   20.000                   20.000                   20.000                   20.000                   20.107                   20.268                   20.000                   20.000                   20.000                   20.000                   20.106                   20.266                   20.000                   20.000                   20.000                   20.000                   20.081                   20.222                   20.000                   20.000                   20.000                   20.000                   20.012                   20.072                   20.000                   20.000                   20.000                   20.000                   20.002                   20.029                   20.000                   20.000                   20.000                   20.000                   20.000                   20.011
12.000                   3.0000                   3.0000                   1.1000                   6000.0                   4000.0                   5.0000                   29.757                   65.458                   262.23                   301.51                   325.05                   330.72                   29.729                   65.653                   266.10                   306.09                   330.52                   336.34                   29.689                   65.397                   263.49                   303.84                   328.49                   334.13                   29.659                   65.380                   265.53                   306.43                   331.10                   336.78                   29.638                   65.121                   260.30                   299.68                   323.47                   329.03                   29.885                   66.490                   272.57                   315.38                   341.65                   347.50                   27.833                   56.965                   217.23                   248.57                   268.07                   272.80                   22.714                   32.741                   86.453                   96.021                   101.69                   103.33                   21.443                   26.765                   55.149                   59.851                   62.579                   63.380                   23.423                   28.494                   46.960                   49.988                   51.423                   51.830
12.000                   3.0000                   3.0000                   1.1000                   6000.0                   4000.0                   10.000                   92.334                   174.11                   481.02                   541.37                   575.00                   581.89                   92.414                   174.48                   481.96                   542.04                   575.24                   582.07                   92.151                   174.06                   482.17                   542.27                   576.00                   582.96                   92.259                   174.41                   483.53                   544.03                   578.05                   585.01                   92.120                   173.96                   481.87                   542.17                   576.00                   582.94                   92.642                   174.13                   472.41                   529.62                   561.76                   568.45                   78.520                   144.45                   374.64                   415.90                   440.08                   445.51                   41.761                   65.435                   137.04                   147.77                   154.33                   156.21                   31.804                   44.031                   78.736                   83.385                   86.152                   86.993                   33.814                   43.184                   63.484                   65.842                   67.106                   67.472
12.000                   3.0000                   3.0000                   1.1000                   6000.0                   4000.0                   15.000                   186.00                   295.20                   678.26                   755.54                   799.20                   807.65                   185.94                   294.81                   671.11                   742.48                   782.38                   790.61                   185.66                   294.75                   674.22                   749.21                   791.57                   799.91                   185.92                   295.27                   677.07                   753.12                   794.84                   803.08                   185.77                   294.99                   676.95                   752.78                   795.88                   804.51                   184.65                   290.91                   651.76                   719.34                   755.14                   762.44                   154.77                   241.71                   522.35                   570.58                   599.41                   605.63                   72.661                   104.10                   189.19                   202.02                   209.95                   212.10                   48.373                   63.915                   102.84                   108.03                   111.09                   112.04                   46.823                   57.919                   81.293                   84.193                   85.651                   86.063
12.000                   3.0000                   3.0000                   1.1000                   6000.0                   4000.0                   20.000                   287.86                   410.02                   861.52                   964.27                   1009.2                   1016.6                   287.37                   408.71                   852.63                   954.69                   999.91                   1007.5                   287.32                   409.07                   855.63                   957.85                   1002.9                   1010.4                   287.69                   409.76                   859.52                   962.04                   1007.0                   1014.5                   287.61                   409.79                   861.44                   964.31                   1009.3                   1016.7                   283.62                   401.67                   825.79                   926.56                   972.83                   980.74                   240.29                   339.03                   658.98                   718.42                   750.94                   757.42                   110.94                   146.37                   237.42                   250.42                   258.49                   260.67                   68.561                   84.997                   123.11                   128.12                   131.23                   132.19                   59.988                   70.140                   89.553                   91.663                   92.937                   93.353
12.000                   3.0000                   3.0000                   1.1000                   6000.0                   4000.0                   25.000                   384.76                   511.36                   916.24                   970.39                   994.40                   998.43                   383.89                   510.16                   929.45                   987.44                   1012.3                   1016.3                   384.05                   510.42                   953.31                   1023.5                   1050.4                   1054.3                   384.58                   512.66                   1027.8                   1096.8                   1114.0                   1115.5                   384.55                   511.80                   936.38                   992.19                   1015.3                   1019.0                   378.11                   502.00                   921.65                   981.32                   1006.5                   1010.6                   324.33                   429.55                   756.60                   822.80                   857.81                   864.29                   151.49                   189.22                   283.99                   297.34                   305.57                   307.74                   89.669                   106.09                   143.96                   148.93                   152.01                   152.96                   72.722                   81.827                   99.600                   101.61                   102.83                   103.23
12.000                   3.0000                   3.0000                   1.1000                   6000.0                   4000.0                   30.000                   468.30                   588.67                   921.70                   960.09                   977.85                   980.89                   467.56                   590.43                   977.13                   1020.8                   1037.0                   1039.2                   467.26                   588.37                   1015.1                   1071.2                   1087.4                   1089.1                   468.97                   597.38                   1091.1                   1125.7                   1133.3                   1133.4                   468.44                   591.78                   972.40                   1013.6                   1029.1                   1031.4                   461.30                   582.88                   937.24                   974.37                   990.30                   992.93                   400.78                   505.77                   837.81                   901.94                   933.19                   938.70                   192.38                   231.23                   329.59                   343.59                   352.20                   354.42                   111.06                   127.50                   166.04                   171.17                   174.36                   175.34                   85.968                   94.603                   111.96                   113.99                   115.22                   115.62
12.000                   3.0000                   3.0000                   1.1000                   6000.0                   4000.0                   35.000                   539.21                   649.61                   947.30                   977.00                   990.49                   992.74                   538.95                   654.87                   1040.4                   1073.9                   1082.9                   1083.5                   537.80                   650.66                   1064.4                   1099.9                   1108.1                   1108.4                   541.16                   664.53                   1111.9                   1134.6                   1138.8                   1138.5                   539.80                   654.97                   1015.8                   1048.8                   1059.1                   1060.1                   532.97                   646.92                   967.24                   996.34                   1008.3                   1010.1                   467.51                   569.39                   892.82                   948.38                   974.76                   979.31                   232.20                   272.08                   373.88                   388.49                   397.43                   399.69                   132.78                   149.48                   189.02                   194.33                   197.63                   198.64                   100.03                   108.49                   125.86                   127.91                   129.17                   129.57
12.000                   3.0000                   3.0000                   1.1000                   6000.0                   4000.0                   40.000                   597.53                   698.24                   983.53                   1007.3                   1016.9                   1018.3                   597.80                   706.03                   1075.2                   1098.1                   1103.1                   1103.0                   596.04                   700.54                   1068.7                   1093.8                   1099.4                   1099.4                   600.41                   716.26                   1115.7                   1132.7                   1135.3                   1134.7                   598.40                   704.73                   1050.4                   1075.5                   1082.1                   1082.3                   592.41                   697.22                   1005.9                   1030.5                   1038.9                   1039.8                   524.93                   621.85                   935.36                   982.96                   1005.2                   1008.9                   270.48                   311.29                   416.27                   431.38                   440.58                   442.85                   154.93                   171.99                   212.64                   218.13                   221.55                   222.58                   115.05                   123.55                   141.13                   143.22                   144.49                   144.91
12.000                   3.0000                   3.0000                   1.1000                   6000.0                   4000.0                   45.000                   645.92                   740.01                   1027.3                   1047.2                   1053.2                   1053.6                   646.56                   749.36                   1088.7                   1105.1                   1108.0                   1107.6                   644.56                   742.81                   1074.5                   1092.9                   1096.5                   1096.3                   649.22                   759.78                   1112.4                   1125.6                   1127.2                   1126.5                   646.88                   746.83                   1071.8                   1090.3                   1094.2                   1094.0                   641.81                   739.83                   1045.7                   1065.5                   1070.6                   1070.6                   575.65                   667.56                   976.20                   1015.6                   1032.0                   1034.4                   307.22                   348.80                   456.03                   471.43                   480.75                   483.01                   177.32                   194.73                   236.40                   242.04                   245.56                   246.60                   130.87                   139.46                   157.27                   159.38                   160.67                   161.09
12.000                   3.0000                   3.0000                   1.1000                   6000.0                   4000.0                   50.000                   685.10                   780.74                   1065.6                   1080.8                   1083.8                   1083.5                   685.88                   790.62                   1095.0                   1107.3                   1108.9                   1108.2                   684.00                   783.37                   1084.5                   1098.0                   1100.2                   1099.7                   688.24                   800.43                   1108.4                   1118.9                   1119.8                   1119.1                   685.97                   787.35                   1085.4                   1098.8                   1100.9                   1100.4                   681.94                   780.66                   1074.5                   1089.0                   1091.5                   1091.1                   619.89                   707.84                   1028.1                   1059.6                   1069.4                   1070.3                   342.25                   384.40                   493.04                   508.66                   518.06                   520.31                   199.78                   217.51                   260.15                   265.95                   269.55                   270.61                   147.40                   156.09                   174.14                   176.28                   177.58                   178.00
12.000                   3.0000                   3.0000                   1.1000                   6000.0                   4000.0                   55.000                   713.92                   822.72                   1087.0                   1098.1                   1099.5                   1098.9                   714.64                   830.94                   1101.6                   1111.0                   1111.7                   1111.0                   712.99                   824.51                   1094.8                   1105.1                   1106.2                   1105.5                   716.73                   839.00                   1109.5                   1117.9                   1118.3                   1117.4                   714.62                   828.03                   1096.1                   1106.1                   1107.1                   1106.4                   711.23                   821.90                   1091.0                   1101.7                   1102.9                   1102.2                   655.66                   744.52                   1065.7                   1089.1                   1094.6                   1094.7                   374.55                   416.91                   526.29                   542.06                   551.53                   553.76                   222.04                   240.09                   283.64                   289.58                   293.27                   294.35                   164.69                   173.50                   191.77                   193.94                   195.26                   195.69
12.000                   3.0000                   3.0000                   1.1000                   6000.0                   4000.0                   60.000                   737.74                   864.68                   1101.4                   1109.3                   1109.6                   1108.8                   738.36                   870.24                   1108.6                   1115.8                   1115.8                   1114.9                   736.86                   865.42                   1104.6                   1112.2                   1112.4                   1111.5                   740.36                   876.25                   1113.2                   1119.8                   1119.6                   1118.7                   738.32                   868.18                   1105.6                   1113.0                   1113.1                   1112.3                   735.10                   862.76                   1102.8                   1110.6                   1110.9                   1110.1                   686.89                   780.29                   1087.7                   1104.4                   1107.3                   1106.9                   405.26                   447.64                   557.44                   573.33                   582.84                   585.05                   244.16                   262.51                   306.93                   312.99                   316.76                   317.86                   182.37                   191.27                   209.76                   211.97                   213.31                   213.74
12.000                   3.0000                   3.0000                   1.1000                   6000.0                   4000.0                   65.000                   769.85                   903.52                   1112.3                   1118.0                   1117.5                   1116.6                   770.37                   907.04                   1115.9                   1121.2                   1120.6                   1119.7                   769.03                   903.70                   1113.4                   1119.1                   1118.6                   1117.6                   772.55                   911.44                   1118.6                   1123.7                   1122.9                   1121.9                   770.42                   905.72                   1114.2                   1119.7                   1119.2                   1118.2                   766.30                   900.72                   1112.4                   1118.1                   1117.7                   1116.7                   711.92                   817.07                   1099.8                   1112.0                   1113.4                   1112.7                   433.67                   475.93                   585.46                   601.38                   610.90                   613.08                   265.88                   284.50                   329.71                   335.90                   339.75                   340.85                   200.29                   209.29                   228.01                   230.24                   231.60                   232.03
12.000                   3.0000                   3.0000                   1.1000                   6000.0                   4000.0                   70.000                   805.46                   941.05                   1121.7                   1125.6                   1124.5                   1123.5                   805.89                   942.77                   1123.2                   1127.0                   1125.9                   1124.8                   804.71                   940.86                   1122.0                   1125.8                   1124.8                   1123.7                   808.35                   945.78                   1124.8                   1128.4                   1127.2                   1126.1                   806.09                   942.17                   1122.5                   1126.3                   1125.2                   1124.1                   800.59                   937.46                   1121.0                   1125.0                   1123.9                   1122.9                   734.32                   854.29                   1107.7                   1116.3                   1116.7                   1115.8                   461.12                   503.18                   612.16                   628.08                   637.58                   639.74                   287.43                   306.30                   352.29                   358.60                   362.52                   363.63                   218.31                   227.42                   246.36                   248.61                   249.99                   250.42
12.000                   3.0000                   3.0000                   1.1000                   6000.0                   4000.0                   75.000                   850.88                   973.99                   1130.2                   1132.8                   1131.3                   1130.1                   851.00                   974.79                   1130.9                   1133.5                   1131.9                   1130.8                   850.31                   973.77                   1130.2                   1132.8                   1131.3                   1130.1                   853.22                   976.95                   1131.9                   1134.4                   1132.8                   1131.6                   851.35                   974.58                   1130.5                   1133.1                   1131.6                   1130.4                   845.21                   969.99                   1129.0                   1131.7                   1130.2                   1129.1                   760.93                   888.71                   1112.8                   1119.3                   1119.0                   1118.1                   486.10                   527.72                   635.65                   651.56                   661.03                   663.15                   308.33                   327.43                   374.08                   380.49                   384.47                   385.58                   236.40                   245.60                   264.74                   267.02                   268.40                   268.84