% Model:              batchmodel_COIL_N_12_COIL_kr_2.25_COIL_kh_3_COIL_kturn_1.7_FUNZ_freq_6000_FUNZ_I_eff_2500.mph
% Version:            COMSOL 5.6.0.280
% Date:               Feb 1 2022, 22:48
% Table:              Tabella 1 - GRIGLIA_T
% COIL_N                 COIL_kr                  COIL_kh                  COIL_kturn               FUNZ_freq                FUNZ_I_eff               Time (s)                 Temperatura (degC), Punto: (0, 0)Temperatura (degC), Punto: (15, 0)Temperatura (degC), Punto: (27.483, 0)Temperatura (degC), Punto: (28.742, 0)Temperatura (degC), Punto: (29.497, 0)Temperatura (degC), Punto: (29.748, 0)Temperatura (degC), Punto: (0, 62.5)Temperatura (degC), Punto: (15, 62.5)Temperatura (degC), Punto: (27.483, 62.5)Temperatura (degC), Punto: (28.742, 62.5)Temperatura (degC), Punto: (29.497, 62.5)Temperatura (degC), Punto: (29.748, 62.5)Temperatura (degC), Punto: (0, 125)Temperatura (degC), Punto: (15, 125)Temperatura (degC), Punto: (27.483, 125)Temperatura (degC), Punto: (28.742, 125)Temperatura (degC), Punto: (29.497, 125)Temperatura (degC), Punto: (29.748, 125)Temperatura (degC), Punto: (0, 187.5)Temperatura (degC), Punto: (15, 187.5)Temperatura (degC), Punto: (27.483, 187.5)Temperatura (degC), Punto: (28.742, 187.5)Temperatura (degC), Punto: (29.497, 187.5)Temperatura (degC), Punto: (29.748, 187.5)Temperatura (degC), Punto: (0, 250)Temperatura (degC), Punto: (15, 250)Temperatura (degC), Punto: (27.483, 250)Temperatura (degC), Punto: (28.742, 250)Temperatura (degC), Punto: (29.497, 250)Temperatura (degC), Punto: (29.748, 250)Temperatura (degC), Punto: (0, 312.5)Temperatura (degC), Punto: (15, 312.5)Temperatura (degC), Punto: (27.483, 312.5)Temperatura (degC), Punto: (28.742, 312.5)Temperatura (degC), Punto: (29.497, 312.5)Temperatura (degC), Punto: (29.748, 312.5)Temperatura (degC), Punto: (0, 375)Temperatura (degC), Punto: (15, 375)Temperatura (degC), Punto: (27.483, 375)Temperatura (degC), Punto: (28.742, 375)Temperatura (degC), Punto: (29.497, 375)Temperatura (degC), Punto: (29.748, 375)Temperatura (degC), Punto: (0, 437.5)Temperatura (degC), Punto: (15, 437.5)Temperatura (degC), Punto: (27.483, 437.5)Temperatura (degC), Punto: (28.742, 437.5)Temperatura (degC), Punto: (29.497, 437.5)Temperatura (degC), Punto: (29.748, 437.5)Temperatura (degC), Punto: (0, 468.75)Temperatura (degC), Punto: (15, 468.75)Temperatura (degC), Punto: (27.483, 468.75)Temperatura (degC), Punto: (28.742, 468.75)Temperatura (degC), Punto: (29.497, 468.75)Temperatura (degC), Punto: (29.748, 468.75)Temperatura (degC), Punto: (0, 492.19)Temperatura (degC), Punto: (15, 492.19)Temperatura (degC), Punto: (27.483, 492.19)Temperatura (degC), Punto: (28.742, 492.19)Temperatura (degC), Punto: (29.497, 492.19)Temperatura (degC), Punto: (29.748, 492.19)
12.000                   2.2500                   3.0000                   1.7000                   6000.0                   2500.0                   0.0000                   20.000                   20.000                   20.000                   20.000                   20.011                   20.070                   20.000                   20.000                   20.000                   20.000                   20.016                   20.083                   20.000                   20.000                   20.000                   20.000                   20.014                   20.077                   20.000                   20.000                   20.000                   20.000                   20.013                   20.074                   20.000                   20.000                   20.000                   20.000                   20.017                   20.084                   20.000                   20.000                   20.000                   20.000                   20.012                   20.071                   20.000                   20.000                   20.000                   20.000                   20.015                   20.081                   20.000                   20.000                   20.000                   20.000                   20.015                   20.080                   20.000                   20.000                   20.000                   20.000                   20.017                   20.086                   20.000                   20.000                   20.000                   20.000                   20.012                   20.072
12.000                   2.2500                   3.0000                   1.7000                   6000.0                   2500.0                   5.0000                   22.719                   30.644                   71.090                   78.697                   83.620                   85.127                   23.211                   32.957                   82.776                   91.665                   97.249                   98.952                   23.054                   32.351                   79.819                   88.169                   93.417                   95.032                   23.013                   32.215                   79.494                   87.618                   92.553                   94.121                   23.425                   33.870                   86.679                   95.905                   101.64                   103.37                   22.740                   30.889                   73.023                   80.872                   85.871                   87.394                   23.286                   33.211                   83.492                   92.568                   98.429                   100.22                   23.160                   32.736                   81.723                   90.539                   96.196                   97.925                   23.456                   33.841                   86.720                   96.120                   102.11                   103.93                   25.289                   35.931                   81.423                   89.361                   94.426                   95.982
12.000                   2.2500                   3.0000                   1.7000                   6000.0                   2500.0                   10.000                   38.802                   57.201                   115.21                   124.35                   129.68                   131.17                   41.319                   62.843                   131.72                   142.53                   148.84                   150.73                   40.596                   61.378                   127.88                   138.22                   144.12                   145.89                   40.392                   60.799                   124.82                   134.39                   139.73                   141.37                   42.351                   64.829                   136.08                   147.21                   153.77                   155.69                   39.161                   58.028                   117.41                   126.65                   131.83                   133.22                   41.698                   63.539                   134.33                   145.84                   153.10                   155.25                   41.252                   62.684                   131.74                   142.67                   149.32                   151.29                   42.947                   65.674                   138.07                   149.36                   156.13                   158.15                   47.393                   70.327                   134.79                   144.62                   150.49                   152.21
12.000                   2.2500                   3.0000                   1.7000                   6000.0                   2500.0                   15.000                   63.775                   88.008                   151.87                   160.94                   166.66                   168.35                   68.507                   96.029                   169.14                   179.57                   186.04                   187.79                   67.099                   93.657                   164.01                   173.98                   180.13                   181.76                   66.674                   92.696                   161.47                   171.35                   177.37                   179.05                   70.298                   98.511                   172.53                   182.95                   189.49                   191.25                   64.631                   89.362                   154.57                   163.87                   169.71                   171.46                   69.076                   96.649                   168.78                   178.59                   184.55                   186.18                   68.441                   95.676                   166.98                   176.82                   182.93                   184.60                   71.802                   100.30                   175.25                   185.66                   192.10                   193.80                   76.041                   103.68                   168.25                   176.42                   181.33                   182.75
12.000                   2.2500                   3.0000                   1.7000                   6000.0                   2500.0                   20.000                   93.957                   120.79                   189.59                   199.34                   205.44                   207.18                   100.16                   130.20                   208.34                   219.59                   226.61                   228.54                   98.103                   126.94                   201.26                   211.84                   218.43                   220.24                   97.478                   125.73                   198.24                   208.56                   214.97                   216.76                   102.29                   132.84                   211.94                   223.30                   230.42                   232.36                   95.155                   122.40                   192.17                   202.05                   208.24                   210.01                   100.67                   130.53                   207.42                   218.32                   225.08                   226.94                   100.08                   129.67                   205.93                   216.78                   223.55                   225.42                   104.47                   135.14                   214.58                   225.94                   233.03                   234.96                   107.19                   136.11                   203.40                   212.24                   217.70                   219.26
12.000                   2.2500                   3.0000                   1.7000                   6000.0                   2500.0                   25.000                   125.66                   154.57                   228.18                   238.64                   245.16                   246.97                   133.03                   165.15                   248.56                   260.67                   268.22                   270.27                   130.36                   161.08                   239.92                   251.23                   258.28                   260.21                   129.55                   159.65                   236.47                   247.44                   254.28                   256.16                   135.36                   167.91                   252.42                   264.71                   272.37                   274.44                   127.07                   156.31                   230.63                   241.20                   247.79                   249.62                   133.40                   165.18                   247.23                   259.10                   266.51                   268.52                   132.92                   164.50                   245.99                   257.78                   265.13                   267.13                   137.88                   170.32                   254.57                   266.82                   274.46                   276.52                   138.97                   168.92                   239.16                   248.59                   254.45                   256.10
12.000                   2.2500                   3.0000                   1.7000                   6000.0                   2500.0                   30.000                   158.44                   189.24                   267.79                   279.01                   285.98                   287.87                   166.71                   200.76                   289.56                   302.53                   310.58                   312.71                   163.53                   196.06                   279.90                   292.01                   299.53                   301.55                   162.55                   194.42                   276.09                   287.85                   295.16                   297.13                   169.15                   203.60                   293.55                   306.70                   314.87                   317.03                   159.98                   191.04                   270.22                   281.55                   288.60                   290.50                   166.93                   200.55                   287.89                   300.63                   308.55                   310.65                   166.55                   200.00                   286.81                   299.45                   307.31                   309.40                   171.61                   205.70                   294.79                   307.84                   315.94                   318.08                   171.10                   202.10                   275.26                   285.17                   291.32                   293.00
12.000                   2.2500                   3.0000                   1.7000                   6000.0                   2500.0                   35.000                   191.78                   224.41                   308.07                   320.09                   327.54                   329.51                   200.79                   236.73                   331.00                   344.85                   353.41                   355.63                   197.18                   231.50                   320.57                   333.53                   341.54                   343.64                   196.04                   229.67                   316.44                   329.02                   336.82                   338.87                   203.30                   239.61                   335.05                   349.09                   357.77                   360.01                   193.41                   226.25                   310.49                   322.64                   330.17                   332.16                   200.87                   236.32                   329.07                   342.69                   351.14                   353.33                   200.58                   235.86                   328.07                   341.60                   349.97                   352.14                   205.44                   241.16                   335.12                   348.96                   357.53                   359.73                   203.38                   235.42                   311.53                   321.89                   328.33                   330.05
12.000                   2.2500                   3.0000                   1.7000                   6000.0                   2500.0                   40.000                   225.22                   259.67                   348.48                   361.31                   369.24                   371.29                   234.92                   272.73                   372.49                   387.22                   396.30                   398.60                   230.90                   267.02                   361.35                   375.15                   383.65                   385.84                   229.61                   265.00                   356.91                   370.33                   378.62                   380.76                   237.48                   275.64                   376.59                   391.52                   400.71                   403.03                   226.91                   261.54                   350.90                   363.86                   371.88                   373.95                   234.86                   272.13                   370.32                   384.82                   393.80                   396.07                   234.64                   271.75                   369.38                   383.78                   392.68                   394.93                   239.23                   276.56                   375.39                   390.02                   399.04                   401.31                   235.63                   268.71                   347.74                   358.57                   365.27                   367.04
12.000                   2.2500                   3.0000                   1.7000                   6000.0                   2500.0                   45.000                   259.18                   295.41                   389.64                   403.34                   411.77                   413.89                   269.30                   308.94                   414.26                   429.89                   439.49                   441.85                   265.01                   302.92                   402.72                   417.40                   426.40                   428.66                   263.60                   300.77                   398.11                   412.40                   421.20                   423.41                   271.85                   311.84                   418.31                   434.13                   443.83                   446.22                   260.88                   297.27                   392.02                   405.85                   414.38                   416.53                   269.14                   308.23                   411.94                   427.33                   436.82                   439.16                   268.91                   307.81                   410.90                   426.19                   435.59                   437.91                   272.78                   311.68                   415.31                   430.70                   440.13                   442.46                   267.72                   301.84                   383.70                   394.92                   401.86                   403.66
12.000                   2.2500                   3.0000                   1.7000                   6000.0                   2500.0                   50.000                   293.14                   331.15                   430.79                   445.36                   454.30                   456.50                   303.69                   345.15                   456.03                   472.56                   482.68                   485.11                   299.12                   338.83                   444.10                   459.65                   469.15                   471.48                   297.60                   336.54                   439.31                   454.47                   463.78                   466.06                   306.23                   348.03                   460.04                   476.75                   486.95                   489.40                   294.84                   333.00                   433.15                   447.85                   456.88                   459.10                   303.41                   344.32                   453.56                   469.84                   479.85                   482.25                   303.18                   343.88                   452.42                   468.59                   478.51                   480.89                   306.33                   346.80                   455.23                   471.37                   481.22                   483.60                   299.81                   334.96                   419.65                   431.28                   438.45                   440.28
12.000                   2.2500                   3.0000                   1.7000                   6000.0                   2500.0                   55.000                   326.25                   366.04                   471.16                   486.67                   496.16                   498.43                   336.92                   380.13                   496.45                   513.95                   524.61                   527.10                   332.22                   373.67                   484.30                   500.77                   510.79                   513.18                   330.65                   371.34                   479.49                   495.59                   505.44                   507.78                   339.42                   382.97                   500.39                   518.08                   528.83                   531.33                   327.91                   367.82                   473.40                   489.03                   498.62                   500.91                   336.60                   379.26                   493.93                   511.17                   521.72                   524.18                   336.21                   378.62                   492.45                   509.55                   520.01                   522.46                   338.34                   380.30                   493.33                   510.28                   520.56                   522.99                   330.48                   366.61                   454.01                   466.02                   473.41                   475.28
12.000                   2.2500                   3.0000                   1.7000                   6000.0                   2500.0                   60.000                   359.11                   400.66                   511.29                   527.76                   537.81                   540.16                   369.82                   414.75                   536.47                   554.96                   566.17                   568.72                   365.02                   408.20                   524.14                   541.55                   552.10                   554.55                   363.41                   405.84                   519.37                   536.41                   546.82                   549.23                   372.26                   417.53                   540.34                   559.02                   570.32                   572.89                   360.70                   402.36                   513.38                   529.97                   540.13                   542.50                   369.46                   413.85                   533.92                   552.14                   563.24                   565.77                   368.87                   412.97                   532.04                   550.09                   561.08                   563.59                   369.89                   413.31                   530.90                   548.66                   559.38                   561.85                   360.73                   397.83                   487.88                   500.28                   507.89                   509.78
12.000                   2.2500                   3.0000                   1.7000                   6000.0                   2500.0                   65.000                   391.97                   435.28                   551.43                   568.85                   579.46                   581.89                   402.71                   449.37                   576.48                   595.97                   607.73                   610.34                   397.82                   442.72                   563.99                   582.33                   593.41                   595.92                   396.17                   440.34                   559.25                   577.23                   588.19                   590.68                   405.09                   452.09                   580.29                   599.97                   611.82                   614.44                   393.50                   436.90                   553.37                   570.91                   581.63                   584.08                   402.31                   448.44                   573.91                   593.11                   604.76                   607.36                   401.53                   447.32                   571.62                   590.62                   602.16                   604.73                   401.44                   446.32                   568.46                   587.04                   598.20                   600.72                   390.99                   429.05                   521.75                   534.54                   542.37                   544.29
12.000                   2.2500                   3.0000                   1.7000                   6000.0                   2500.0                   70.000                   424.83                   469.91                   591.56                   609.94                   621.12                   623.62                   435.60                   483.99                   616.50                   636.97                   649.30                   651.96                   430.62                   477.24                   603.83                   623.11                   634.72                   637.29                   428.94                   474.84                   599.12                   618.05                   629.57                   632.13                   437.93                   486.66                   620.24                   640.91                   653.31                   655.99                   426.29                   471.45                   593.35                   611.85                   623.14                   625.66                   435.17                   483.04                   613.91                   634.08                   646.29                   648.96                   434.19                   481.68                   611.21                   631.16                   643.23                   645.87                   432.99                   479.32                   606.02                   625.42                   637.02                   639.58                   421.24                   460.27                   555.63                   568.80                   576.86                   578.79
12.000                   2.2500                   3.0000                   1.7000                   6000.0                   2500.0                   75.000                   457.66                   504.49                   631.63                   650.97                   662.71                   665.29                   468.46                   518.57                   656.43                   677.90                   690.78                   693.51                   463.39                   511.73                   643.61                   663.83                   675.96                   678.60                   461.67                   509.30                   638.93                   658.81                   670.89                   673.52                   470.74                   521.18                   660.11                   681.78                   694.74                   697.48                   459.06                   505.96                   633.28                   652.73                   664.58                   667.18                   468.00                   517.59                   653.82                   674.98                   687.74                   690.47                   466.82                   515.99                   650.72                   671.62                   684.24                   686.93                   464.51                   512.30                   643.53                   663.75                   675.78                   678.39                   451.47                   491.46                   589.47                   603.03                   611.30                   613.26