% Model:              batchmodel_COIL_N_12_COIL_kr_2.25_COIL_kh_3_COIL_kturn_1.7_FUNZ_freq_6000_FUNZ_I_eff_4000.mph
% Version:            COMSOL 5.6.0.280
% Date:               Feb 1 2022, 23:30
% Table:              Tabella 1 - GRIGLIA_T
% COIL_N                 COIL_kr                  COIL_kh                  COIL_kturn               FUNZ_freq                FUNZ_I_eff               Time (s)                 Temperatura (degC), Punto: (0, 0)Temperatura (degC), Punto: (15, 0)Temperatura (degC), Punto: (27.483, 0)Temperatura (degC), Punto: (28.742, 0)Temperatura (degC), Punto: (29.497, 0)Temperatura (degC), Punto: (29.748, 0)Temperatura (degC), Punto: (0, 62.5)Temperatura (degC), Punto: (15, 62.5)Temperatura (degC), Punto: (27.483, 62.5)Temperatura (degC), Punto: (28.742, 62.5)Temperatura (degC), Punto: (29.497, 62.5)Temperatura (degC), Punto: (29.748, 62.5)Temperatura (degC), Punto: (0, 125)Temperatura (degC), Punto: (15, 125)Temperatura (degC), Punto: (27.483, 125)Temperatura (degC), Punto: (28.742, 125)Temperatura (degC), Punto: (29.497, 125)Temperatura (degC), Punto: (29.748, 125)Temperatura (degC), Punto: (0, 187.5)Temperatura (degC), Punto: (15, 187.5)Temperatura (degC), Punto: (27.483, 187.5)Temperatura (degC), Punto: (28.742, 187.5)Temperatura (degC), Punto: (29.497, 187.5)Temperatura (degC), Punto: (29.748, 187.5)Temperatura (degC), Punto: (0, 250)Temperatura (degC), Punto: (15, 250)Temperatura (degC), Punto: (27.483, 250)Temperatura (degC), Punto: (28.742, 250)Temperatura (degC), Punto: (29.497, 250)Temperatura (degC), Punto: (29.748, 250)Temperatura (degC), Punto: (0, 312.5)Temperatura (degC), Punto: (15, 312.5)Temperatura (degC), Punto: (27.483, 312.5)Temperatura (degC), Punto: (28.742, 312.5)Temperatura (degC), Punto: (29.497, 312.5)Temperatura (degC), Punto: (29.748, 312.5)Temperatura (degC), Punto: (0, 375)Temperatura (degC), Punto: (15, 375)Temperatura (degC), Punto: (27.483, 375)Temperatura (degC), Punto: (28.742, 375)Temperatura (degC), Punto: (29.497, 375)Temperatura (degC), Punto: (29.748, 375)Temperatura (degC), Punto: (0, 437.5)Temperatura (degC), Punto: (15, 437.5)Temperatura (degC), Punto: (27.483, 437.5)Temperatura (degC), Punto: (28.742, 437.5)Temperatura (degC), Punto: (29.497, 437.5)Temperatura (degC), Punto: (29.748, 437.5)Temperatura (degC), Punto: (0, 468.75)Temperatura (degC), Punto: (15, 468.75)Temperatura (degC), Punto: (27.483, 468.75)Temperatura (degC), Punto: (28.742, 468.75)Temperatura (degC), Punto: (29.497, 468.75)Temperatura (degC), Punto: (29.748, 468.75)Temperatura (degC), Punto: (0, 492.19)Temperatura (degC), Punto: (15, 492.19)Temperatura (degC), Punto: (27.483, 492.19)Temperatura (degC), Punto: (28.742, 492.19)Temperatura (degC), Punto: (29.497, 492.19)Temperatura (degC), Punto: (29.748, 492.19)
12.000                   2.2500                   3.0000                   1.7000                   6000.0                   4000.0                   0.0000                   20.000                   20.000                   20.000                   20.000                   20.043                   20.145                   20.000                   20.000                   20.000                   20.000                   20.057                   20.173                   20.000                   20.000                   20.000                   20.000                   20.050                   20.159                   20.000                   20.000                   20.000                   20.000                   20.047                   20.153                   20.000                   20.000                   20.000                   20.000                   20.057                   20.175                   20.000                   20.000                   20.000                   20.000                   20.043                   20.146                   20.000                   20.000                   20.000                   20.000                   20.056                   20.169                   20.000                   20.000                   20.000                   20.000                   20.054                   20.166                   20.000                   20.000                   20.000                   20.000                   20.059                   20.178                   20.000                   20.000                   20.000                   20.000                   20.051                   20.161
12.000                   2.2500                   3.0000                   1.7000                   6000.0                   4000.0                   5.0000                   25.507                   45.582                   160.29                   179.89                   191.61                   194.88                   25.948                   47.766                   172.12                   194.78                   208.52                   212.10                   25.549                   45.694                   156.50                   175.96                   187.53                   190.93                   25.406                   44.972                   153.89                   174.05                   186.67                   190.13                   25.992                   48.126                   177.82                   203.54                   220.16                   224.01                   25.345                   44.716                   153.13                   172.64                   184.51                   187.77                   25.750                   46.746                   163.06                   183.20                   194.67                   197.72                   25.831                   47.330                   170.41                   193.75                   208.49                   212.15                   25.965                   47.469                   169.85                   193.47                   208.47                   212.35                   30.287                   54.412                   170.07                   190.64                   203.05                   206.30
12.000                   2.2500                   3.0000                   1.7000                   6000.0                   4000.0                   10.000                   61.380                   107.11                   251.61                   273.73                   286.62                   289.83                   64.289                   114.20                   279.19                   306.54                   322.90                   326.81                   62.039                   109.03                   262.34                   288.00                   303.43                   307.03                   61.073                   106.81                   253.30                   277.03                   291.33                   294.79                   64.942                   115.71                   280.11                   306.53                   321.98                   325.90                   60.593                   105.63                   249.97                   273.10                   286.78                   290.16                   63.022                   111.50                   271.74                   298.54                   314.91                   318.95                   63.704                   112.78                   271.84                   297.78                   313.29                   317.16                   65.086                   115.30                   282.57                   310.22                   326.43                   330.29                   73.274                   123.34                   268.23                   290.10                   303.09                   306.46
12.000                   2.2500                   3.0000                   1.7000                   6000.0                   4000.0                   15.000                   119.06                   177.08                   346.54                   373.70                   390.18                   394.05                   125.44                   189.31                   382.62                   414.49                   433.54                   437.86                   121.25                   181.84                   362.95                   392.47                   410.19                   414.31                   119.23                   178.22                   353.19                   381.57                   398.76                   402.78                   126.54                   191.05                   386.40                   418.83                   438.29                   442.67                   118.15                   176.11                   346.53                   373.90                   390.46                   394.34                   123.19                   185.70                   374.51                   405.54                   424.16                   428.39                   124.13                   186.64                   374.24                   405.05                   423.57                   427.80                   127.65                   191.97                   387.47                   419.80                   439.07                   443.45                   134.70                   196.17                   361.48                   386.53                   401.75                   405.33
12.000                   2.2500                   3.0000                   1.7000                   6000.0                   4000.0                   20.000                   182.77                   249.78                   443.18                   473.89                   492.00                   496.16                   192.41                   266.36                   487.38                   523.29                   544.13                   548.72                   186.64                   257.22                   467.70                   502.61                   522.38                   526.77                   183.69                   252.42                   454.46                   487.30                   506.70                   511.07                   193.77                   268.32                   493.61                   531.34                   553.59                   558.40                   182.04                   249.47                   445.19                   476.56                   494.57                   498.72                   189.34                   261.72                   476.11                   510.49                   530.40                   534.83                   190.41                   262.81                   480.20                   516.56                   537.57                   542.10                   195.61                   269.64                   492.53                   529.39                   550.78                   555.50                   201.03                   269.96                   453.56                   481.67                   498.50                   502.17
12.000                   2.2500                   3.0000                   1.7000                   6000.0                   4000.0                   25.000                   248.62                   321.63                   531.09                   563.81                   582.55                   586.84                   260.81                   341.48                   581.43                   619.49                   641.00                   645.74                   254.05                   331.59                   565.24                   605.08                   626.75                   631.36                   250.22                   325.41                   546.48                   582.17                   602.66                   607.21                   262.28                   343.68                   590.31                   631.73                   655.58                   660.76                   247.90                   321.22                   532.12                   565.03                   583.09                   587.28                   256.98                   335.73                   567.82                   602.88                   622.53                   627.04                   258.35                   337.69                   578.05                   619.04                   641.89                   646.65                   263.97                   344.06                   584.83                   624.30                   647.19                   652.24                   267.31                   340.35                   535.00                   564.88                   582.35                   586.04
12.000                   2.2500                   3.0000                   1.7000                   6000.0                   4000.0                   30.000                   313.79                   391.61                   617.38                   654.13                   674.99                   679.57                   327.93                   413.66                   671.31                   715.58                   740.16                   745.33                   320.48                   403.29                   654.81                   699.78                   724.37                   729.38                   315.91                   396.07                   633.62                   673.42                   696.07                   700.92                   329.45                   416.04                   681.72                   729.90                   756.78                   762.36                   312.98                   390.92                   617.04                   653.55                   673.59                   678.04                   323.45                   407.06                   656.03                   696.27                   718.76                   723.67                   325.13                   409.72                   668.26                   715.07                   740.87                   746.02                   330.50                   414.97                   670.73                   715.39                   741.06                   746.49                   331.37                   407.53                   611.77                   643.73                   662.12                   665.93
12.000                   2.2500                   3.0000                   1.7000                   6000.0                   4000.0                   35.000                   377.06                   458.35                   702.17                   746.58                   771.95                   777.01                   392.37                   481.25                   759.23                   816.77                   848.13                   854.02                   384.56                   470.53                   734.91                   786.09                   815.14                   820.76                   379.49                   462.93                   715.90                   762.85                   789.73                   795.08                   393.84                   483.60                   768.63                   828.62                   860.55                   866.52                   376.15                   457.53                   702.04                   746.58                   771.98                   777.06                   387.40                   474.19                   742.06                   795.60                   825.91                   831.68                   389.32                   477.06                   750.65                   805.99                   836.57                   842.35                   393.73                   480.67                   751.52                   806.38                   836.81                   842.58                   391.50                   469.91                   682.67                   717.54                   737.46                   741.54
12.000                   2.2500                   3.0000                   1.7000                   6000.0                   4000.0                   40.000                   435.58                   519.38                   780.35                   834.17                   862.46                   867.76                   451.56                   543.15                   856.23                   920.00                   950.89                   956.33                   443.52                   531.90                   821.41                   880.82                   911.19                   916.65                   438.15                   524.00                   797.26                   853.91                   883.22                   888.63                   453.01                   545.59                   868.08                   933.53                   964.52                   969.89                   434.57                   518.46                   780.45                   834.77                   863.28                   868.60                   446.32                   535.90                   836.07                   898.40                   928.88                   934.31                   448.25                   538.50                   842.08                   904.10                   934.47                   939.89                   451.47                   540.59                   841.76                   904.07                   934.61                   939.98                   446.70                   525.81                   735.47                   771.54                   792.25                   796.39
12.000                   2.2500                   3.0000                   1.7000                   6000.0                   4000.0                   45.000                   492.33                   577.86                   856.76                   911.37                   938.26                   943.03                   509.02                   602.28                   935.26                   989.64                   1014.1                   1018.1                   500.68                   590.58                   900.50                   956.96                   983.60                   988.17                   495.03                   582.50                   875.82                   932.12                   959.25                   963.99                   510.48                   605.02                   985.48                   1050.4                   1071.5                   1074.1                   491.24                   576.88                   857.77                   913.18                   940.41                   945.23                   503.54                   594.99                   920.24                   978.17                   1004.9                   1009.4                   505.41                   597.19                   920.90                   976.84                   1002.7                   1007.0                   507.43                   597.81                   917.72                   973.29                   999.09                   1003.4                   500.01                   578.84                   786.81                   824.86                   845.47                   849.40
12.000                   2.2500                   3.0000                   1.7000                   6000.0                   4000.0                   50.000                   544.29                   628.30                   916.20                   964.95                   988.30                   992.30                   561.66                   653.44                   962.73                   999.46                   1015.3                   1017.8                   552.89                   640.61                   944.25                   990.85                   1012.5                   1016.0                   547.10                   632.90                   931.50                   980.32                   1003.3                   1007.2                   563.45                   659.41                   1075.2                   1109.5                   1117.3                   1117.5                   543.17                   627.43                   917.40                   966.54                   990.02                   994.03                   555.98                   645.56                   948.11                   990.01                   1009.4                   1012.6                   557.68                   647.39                   944.20                   983.45                   1001.7                   1004.7                   558.50                   646.85                   939.52                   978.21                   996.32                   999.39                   548.06                   623.42                   830.48                   866.27                   885.11                   888.62
12.000                   2.2500                   3.0000                   1.7000                   6000.0                   4000.0                   55.000                   591.04                   671.94                   958.90                   1000.1                   1019.0                   1022.1                   608.76                   697.10                   993.83                   1023.0                   1034.0                   1035.5                   599.43                   682.99                   977.00                   1016.3                   1033.0                   1035.5                   593.83                   676.35                   977.39                   1020.0                   1037.7                   1040.4                   611.25                   706.94                   1092.9                   1115.0                   1119.3                   1119.1                   589.99                   671.22                   960.10                   1001.6                   1020.5                   1023.6                   602.89                   688.21                   967.22                   999.28                   1013.8                   1016.1                   604.40                   689.99                   967.34                   997.81                   1011.5                   1013.7                   604.16                   688.70                   967.10                   998.38                   1012.3                   1014.6                   590.85                   661.72                   870.45                   904.26                   921.69                   924.85
12.000                   2.2500                   3.0000                   1.7000                   6000.0                   4000.0                   60.000                   630.04                   706.65                   973.26                   1005.0                   1019.2                   1021.5                   647.55                   732.14                   1014.6                   1038.5                   1046.5                   1047.3                   637.94                   716.95                   999.27                   1030.6                   1042.5                   1044.1                   632.78                   711.73                   1019.1                   1053.8                   1065.4                   1066.7                   650.72                   745.44                   1094.5                   1111.6                   1114.6                   1114.1                   629.10                   706.17                   977.82                   1010.1                   1024.1                   1026.3                   641.66                   722.08                   980.37                   1005.2                   1016.0                   1017.6                   643.05                   724.35                   991.70                   1017.1                   1027.3                   1028.7                   642.12                   723.10                   1003.4                   1030.7                   1040.8                   1042.1                   626.61                   692.98                   902.71                   933.38                   948.98                   951.76
12.000                   2.2500                   3.0000                   1.7000                   6000.0                   4000.0                   65.000                   663.83                   736.84                   980.51                   1004.4                   1015.0                   1016.7                   680.54                   764.99                   1031.2                   1050.8                   1056.6                   1057.0                   671.17                   747.95                   1018.6                   1043.4                   1051.6                   1052.4                   666.56                   743.75                   1048.0                   1075.1                   1082.3                   1082.7                   684.09                   781.38                   1093.9                   1107.8                   1109.8                   1109.3                   663.01                   736.69                   989.40                   1014.2                   1024.5                   1026.0                   674.93                   753.12                   994.16                   1013.8                   1021.8                   1022.8                   676.21                   756.40                   1016.4                   1037.9                   1045.3                   1046.0                   674.92                   755.79                   1037.6                   1060.5                   1067.3                   1067.7                   657.90                   720.16                   928.93                   956.12                   969.81                   972.21
12.000                   2.2500                   3.0000                   1.7000                   6000.0                   4000.0                   70.000                   692.48                   764.38                   986.91                   1005.5                   1013.5                   1014.7                   707.75                   797.38                   1045.7                   1061.7                   1065.9                   1065.9                   699.10                   778.01                   1036.0                   1055.7                   1061.4                   1061.7                   695.19                   774.14                   1062.1                   1082.8                   1087.5                   1087.5                   711.39                   815.79                   1092.7                   1104.2                   1105.6                   1104.9                   691.80                   764.63                   999.61                   1019.5                   1027.2                   1028.2                   702.67                   783.46                   1010.7                   1027.0                   1032.8                   1033.4                   703.82                   788.06                   1039.9                   1058.0                   1063.1                   1063.3                   702.50                   788.56                   1065.1                   1082.9                   1086.8                   1086.7                   684.90                   744.47                   949.64                   973.27                   985.05                   987.08
12.000                   2.2500                   3.0000                   1.7000                   6000.0                   4000.0                   75.000                   715.76                   791.70                   995.14                   1010.3                   1016.6                   1017.4                   728.97                   830.05                   1058.4                   1071.3                   1074.0                   1073.7                   721.29                   809.24                   1050.7                   1066.5                   1070.3                   1070.1                   718.27                   804.74                   1066.6                   1082.8                   1086.3                   1086.0                   732.67                   848.04                   1090.8                   1100.2                   1101.1                   1100.4                   715.23                   792.39                   1009.6                   1026.2                   1032.3                   1032.9                   724.40                   815.12                   1030.5                   1044.6                   1048.7                   1048.8                   725.45                   820.74                   1058.8                   1073.4                   1076.5                   1076.3                   724.39                   822.57                   1081.6                   1094.8                   1096.9                   1096.4                   707.52                   767.86                   965.98                   986.17                   996.07                   997.71