% Model:              batchmodel_COIL_N_12_COIL_kr_3_COIL_kh_1_COIL_kturn_1.7_FUNZ_freq_2000_FUNZ_I_eff_4000.mph
% Version:            COMSOL 5.6.0.280
% Date:               Feb 2 2022, 00:56
% Table:              Tabella 1 - GRIGLIA_T
% COIL_N                 COIL_kr                  COIL_kh                  COIL_kturn               FUNZ_freq                FUNZ_I_eff               Time (s)                 Temperatura (degC), Punto: (0, 0)Temperatura (degC), Punto: (15, 0)Temperatura (degC), Punto: (25.641, 0)Temperatura (degC), Punto: (27.821, 0)Temperatura (degC), Punto: (29.128, 0)Temperatura (degC), Punto: (29.564, 0)Temperatura (degC), Punto: (0, 62.5)Temperatura (degC), Punto: (15, 62.5)Temperatura (degC), Punto: (25.641, 62.5)Temperatura (degC), Punto: (27.821, 62.5)Temperatura (degC), Punto: (29.128, 62.5)Temperatura (degC), Punto: (29.564, 62.5)Temperatura (degC), Punto: (0, 125)Temperatura (degC), Punto: (15, 125)Temperatura (degC), Punto: (25.641, 125)Temperatura (degC), Punto: (27.821, 125)Temperatura (degC), Punto: (29.128, 125)Temperatura (degC), Punto: (29.564, 125)Temperatura (degC), Punto: (0, 187.5)Temperatura (degC), Punto: (15, 187.5)Temperatura (degC), Punto: (25.641, 187.5)Temperatura (degC), Punto: (27.821, 187.5)Temperatura (degC), Punto: (29.128, 187.5)Temperatura (degC), Punto: (29.564, 187.5)Temperatura (degC), Punto: (0, 250)Temperatura (degC), Punto: (15, 250)Temperatura (degC), Punto: (25.641, 250)Temperatura (degC), Punto: (27.821, 250)Temperatura (degC), Punto: (29.128, 250)Temperatura (degC), Punto: (29.564, 250)Temperatura (degC), Punto: (0, 312.5)Temperatura (degC), Punto: (15, 312.5)Temperatura (degC), Punto: (25.641, 312.5)Temperatura (degC), Punto: (27.821, 312.5)Temperatura (degC), Punto: (29.128, 312.5)Temperatura (degC), Punto: (29.564, 312.5)Temperatura (degC), Punto: (0, 375)Temperatura (degC), Punto: (15, 375)Temperatura (degC), Punto: (25.641, 375)Temperatura (degC), Punto: (27.821, 375)Temperatura (degC), Punto: (29.128, 375)Temperatura (degC), Punto: (29.564, 375)Temperatura (degC), Punto: (0, 437.5)Temperatura (degC), Punto: (15, 437.5)Temperatura (degC), Punto: (25.641, 437.5)Temperatura (degC), Punto: (27.821, 437.5)Temperatura (degC), Punto: (29.128, 437.5)Temperatura (degC), Punto: (29.564, 437.5)Temperatura (degC), Punto: (0, 468.75)Temperatura (degC), Punto: (15, 468.75)Temperatura (degC), Punto: (25.641, 468.75)Temperatura (degC), Punto: (27.821, 468.75)Temperatura (degC), Punto: (29.128, 468.75)Temperatura (degC), Punto: (29.564, 468.75)Temperatura (degC), Punto: (0, 492.19)Temperatura (degC), Punto: (15, 492.19)Temperatura (degC), Punto: (25.641, 492.19)Temperatura (degC), Punto: (27.821, 492.19)Temperatura (degC), Punto: (29.128, 492.19)Temperatura (degC), Punto: (29.564, 492.19)
12.000                   3.0000                   1.0000                   1.7000                   2000.0                   4000.0                   0.0000                   20.000                   20.000                   20.000                   20.000                   20.104                   20.196                   20.000                   20.000                   20.000                   20.000                   20.104                   20.195                   20.000                   20.000                   20.000                   20.000                   20.102                   20.193                   20.000                   20.000                   20.000                   20.000                   20.074                   20.151                   20.000                   20.000                   20.000                   20.000                   20.013                   20.047                   20.000                   20.000                   20.000                   20.000                   20.000                   20.010                   20.000                   20.000                   20.000                   20.000                   20.000                   20.002                   20.000                   20.000                   20.000                   20.000                   20.000                   20.000                   20.000                   20.000                   20.000                   20.000                   20.000                   20.000                   20.000                   20.000                   20.000                   20.000                   20.000                   20.000
12.000                   3.0000                   1.0000                   1.7000                   2000.0                   4000.0                   5.0000                   32.723                   84.711                   306.22                   401.68                   456.41                   467.38                   32.770                   84.749                   304.93                   399.41                   454.17                   465.13                   32.418                   83.036                   296.16                   387.14                   439.88                   450.55                   29.005                   65.914                   218.69                   280.60                   319.09                   327.51                   22.827                   34.258                   79.559                   95.534                   106.73                   109.98                   20.667                   23.414                   35.135                   38.842                   41.223                   41.991                   20.382                   22.108                   29.860                   31.817                   32.826                   33.176                   20.299                   21.603                   26.938                   28.030                   28.438                   28.549                   20.297                   21.573                   26.388                   27.487                   27.836                   27.905                   21.081                   22.766                   27.029                   27.807                   27.987                   28.015
12.000                   3.0000                   1.0000                   1.7000                   2000.0                   4000.0                   10.000                   115.90                   228.55                   563.88                   692.76                   760.07                   772.32                   115.71                   228.03                   563.11                   692.56                   759.67                   771.89                   113.22                   222.63                   545.96                   669.33                   734.61                   747.17                   90.414                   173.89                   408.87                   496.31                   544.39                   553.90                   43.603                   70.380                   135.83                   156.42                   169.86                   173.39                   25.747                   32.098                   46.567                   50.873                   53.701                   54.620                   22.866                   25.800                   31.074                   32.377                   33.213                   33.500                   22.059                   23.928                   26.544                   27.042                   27.345                   27.446                   21.987                   23.623                   25.545                   25.800                   25.944                   25.990                   22.812                   24.268                   25.721                   25.876                   25.956                   25.979
12.000                   3.0000                   1.0000                   1.7000                   2000.0                   4000.0                   15.000                   232.82                   372.53                   796.28                   974.74                   1044.0                   1054.1                   232.45                   371.93                   790.93                   971.24                   1041.8                   1052.0                   227.21                   362.31                   746.27                   914.49                   990.08                   1002.1                   183.48                   290.50                   571.46                   670.68                   722.36                   732.16                   79.524                   115.52                   195.08                   218.88                   234.03                   237.83                   34.294                   42.326                   58.828                   63.450                   66.431                   67.388                   26.080                   28.927                   34.132                   35.479                   36.340                   36.631                   23.884                   25.274                   27.368                   27.848                   28.150                   28.252                   23.526                   24.519                   25.725                   25.967                   26.115                   26.164                   23.927                   24.710                   25.510                   25.632                   25.699                   25.720
12.000                   3.0000                   1.0000                   1.7000                   2000.0                   4000.0                   20.000                   350.16                   507.87                   1063.4                   1169.0                   1191.7                   1193.0                   349.07                   502.72                   1020.7                   1137.3                   1163.8                   1165.7                   341.14                   487.73                   940.89                   1076.9                   1113.6                   1117.2                   280.31                   395.37                   675.52                   772.72                   825.19                   834.80                   123.22                   164.08                   249.76                   274.52                   289.95                   293.72                   44.703                   53.484                   70.575                   75.170                   78.094                   79.026                   29.297                   32.009                   37.025                   38.334                   39.161                   39.439                   25.302                   26.394                   28.233                   28.688                   28.972                   29.067                   24.519                   25.175                   26.156                   26.380                   26.517                   26.563                   24.573                   25.035                   25.614                   25.723                   25.785                   25.805
12.000                   3.0000                   1.0000                   1.7000                   2000.0                   4000.0                   25.000                   456.24                   625.30                   1161.1                   1212.6                   1220.7                   1219.9                   453.29                   612.73                   1116.0                   1176.5                   1187.5                   1187.1                   444.35                   597.06                   1069.9                   1140.8                   1154.8                   1155.0                   368.21                   482.65                   756.39                   861.58                   912.57                   921.15                   168.85                   211.95                   300.93                   326.51                   342.30                   346.06                   56.057                   65.172                   82.591                   87.247                   90.212                   91.154                   32.480                   35.109                   40.012                   41.302                   42.120                   42.396                   26.502                   27.458                   29.164                   29.601                   29.877                   29.971                   25.254                   25.772                   26.635                   26.847                   26.979                   27.023                   25.031                   25.360                   25.832                   25.932                   25.991                   26.010
12.000                   3.0000                   1.0000                   1.7000                   2000.0                   4000.0                   30.000                   547.48                   720.74                   1183.5                   1212.8                   1215.2                   1213.6                   542.28                   700.89                   1144.3                   1179.9                   1184.4                   1183.2                   534.06                   686.68                   1116.5                   1156.0                   1161.7                   1160.8                   443.78                   554.28                   826.67                   926.15                   969.88                   976.82                   213.64                   257.84                   349.04                   375.30                   391.36                   395.09                   68.117                   77.442                   95.198                   99.944                   102.97                   103.92                   35.689                   38.277                   43.141                   44.428                   45.247                   45.523                   27.612                   28.504                   30.147                   30.577                   30.850                   30.943                   25.885                   26.342                   27.150                   27.356                   27.486                   27.530                   25.426                   25.699                   26.122                   26.217                   26.275                   26.294
12.000                   3.0000                   1.0000                   1.7000                   2000.0                   4000.0                   35.000                   621.49                   801.50                   1182.4                   1200.7                   1200.6                   1198.7                   614.89                   774.29                   1153.3                   1176.0                   1177.3                   1175.7                   608.49                   760.93                   1135.9                   1160.2                   1162.1                   1160.6                   507.83                   613.60                   883.00                   966.97                   1001.8                   1007.0                   256.13                   300.90                   393.34                   419.93                   436.01                   439.67                   80.810                   90.306                   108.39                   113.24                   116.33                   117.30                   38.982                   41.559                   46.424                   47.718                   48.541                   48.818                   28.691                   29.555                   31.170                   31.598                   31.869                   31.962                   26.480                   26.911                   27.694                   27.897                   28.026                   28.070                   25.814                   26.062                   26.463                   26.557                   26.613                   26.632
12.000                   3.0000                   1.0000                   1.7000                   2000.0                   4000.0                   40.000                   680.12                   878.69                   1180.5                   1192.3                   1190.7                   1188.6                   673.23                   849.23                   1160.6                   1175.1                   1174.4                   1172.5                   668.68                   837.12                   1149.4                   1164.7                   1164.3                   1162.5                   564.82                   667.11                   951.89                   1023.4                   1048.2                   1051.1                   296.31                   341.40                   434.70                   461.50                   477.57                   481.17                   93.942                   103.61                   122.09                   127.06                   130.23                   131.22                   42.377                   44.961                   49.858                   51.164                   51.995                   52.276                   29.770                   30.621                   32.227                   32.654                   32.927                   33.019                   27.072                   27.489                   28.262                   28.464                   28.593                   28.636                   26.213                   26.448                   26.839                   26.931                   26.988                   27.007
12.000                   3.0000                   1.0000                   1.7000                   2000.0                   4000.0                   45.000                   724.06                   945.73                   1181.1                   1188.7                   1186.1                   1183.9                   717.68                   920.23                   1167.9                   1177.2                   1175.2                   1173.1                   714.67                   911.32                   1160.6                   1170.3                   1168.4                   1166.3                   615.32                   717.71                   1034.0                   1088.1                   1101.1                   1101.6                   334.12                   379.40                   473.21                   500.22                   516.31                   519.85                   107.43                   117.30                   136.23                   141.34                   144.59                   145.60                   45.897                   48.500                   53.447                   54.768                   55.611                   55.895                   30.863                   31.709                   33.316                   33.746                   34.020                   34.113                   27.673                   28.084                   28.852                   29.055                   29.184                   29.228                   26.630                   26.859                   27.245                   27.337                   27.393                   27.412
12.000                   3.0000                   1.0000                   1.7000                   2000.0                   4000.0                   50.000                   766.78                   1003.6                   1184.9                   1189.7                   1186.3                   1184.0                   758.01                   983.99                   1176.2                   1182.0                   1179.0                   1176.8                   755.23                   977.89                   1171.2                   1177.2                   1174.3                   1172.1                   659.71                   770.66                   1097.3                   1131.5                   1137.2                   1136.4                   369.61                   414.90                   508.90                   536.08                   552.15                   555.63                   121.24                   131.32                   150.72                   155.96                   159.30                   160.33                   49.555                   52.185                   57.193                   58.532                   59.386                   59.674                   31.978                   32.824                   34.438                   34.870                   35.146                   35.240                   28.289                   28.698                   29.466                   29.670                   29.799                   29.843                   27.069                   27.295                   27.678                   27.770                   27.826                   27.845
12.000                   3.0000                   1.0000                   1.7000                   2000.0                   4000.0                   55.000                   836.82                   1053.9                   1191.9                   1194.7                   1190.8                   1188.4                   823.11                   1040.3                   1186.1                   1189.4                   1185.8                   1183.4                   820.07                   1036.2                   1182.4                   1185.8                   1182.1                   1179.9                   697.75                   834.23                   1135.3                   1156.9                   1158.6                   1157.2                   402.80                   447.88                   541.73                   568.90                   584.87                   588.29                   135.29                   145.60                   165.46                   170.82                   174.24                   175.29                   53.360                   56.023                   61.097                   62.455                   63.320                   63.612                   33.120                   33.970                   35.593                   36.028                   36.306                   36.401                   28.924                   29.333                   30.103                   30.308                   30.438                   30.482                   27.530                   27.756                   28.138                   28.230                   28.286                   28.305
12.000                   3.0000                   1.0000                   1.7000                   2000.0                   4000.0                   60.000                   922.95                   1096.7                   1202.5                   1203.8                   1199.5                   1197.0                   910.38                   1087.9                   1198.3                   1200.0                   1195.8                   1193.4                   908.31                   1085.0                   1195.2                   1196.8                   1192.6                   1190.2                   730.13                   901.63                   1158.1                   1171.9                   1171.3                   1169.4                   433.75                   478.49                   571.66                   598.59                   614.34                   617.67                   149.52                   160.04                   180.33                   185.81                   189.31                   190.38                   57.319                   60.017                   65.160                   66.536                   67.414                   67.709                   34.292                   35.147                   36.782                   37.220                   37.500                   37.595                   29.580                   29.990                   30.764                   30.969                   31.100                   31.144                   28.015                   28.240                   28.622                   28.714                   28.770                   28.789
12.000                   3.0000                   1.0000                   1.7000                   2000.0                   4000.0                   65.000                   1000.7                   1133.3                   1217.5                   1217.6                   1212.9                   1210.3                   990.84                   1127.5                   1214.3                   1214.7                   1210.0                   1207.5                   989.10                   1124.9                   1211.0                   1211.4                   1206.7                   1204.2                   768.80                   964.09                   1172.5                   1181.3                   1179.2                   1177.1                   462.32                   506.58                   598.48                   625.07                   640.65                   643.89                   163.84                   174.55                   195.22                   200.82                   204.39                   205.47                   61.454                   64.188                   69.400                   70.795                   71.684                   71.983                   35.504                   36.365                   38.011                   38.453                   38.735                   38.831                   30.264                   30.675                   31.453                   31.659                   31.791                   31.835                   28.528                   28.753                   29.135                   29.227                   29.283                   29.302
12.000                   3.0000                   1.0000                   1.7000                   2000.0                   4000.0                   70.000                   1057.5                   1165.9                   1238.2                   1237.3                   1232.1                   1229.4                   1050.3                   1161.4                   1235.5                   1234.8                   1229.6                   1226.9                   1048.1                   1158.2                   1231.4                   1230.7                   1225.6                   1222.9                   833.49                   1014.2                   1181.8                   1187.7                   1184.7                   1182.5                   487.74                   531.24                   621.37                   647.68                   663.03                   666.18                   178.13                   189.00                   210.00                   215.69                   219.32                   220.41                   65.843                   68.612                   73.891                   75.303                   76.203                   76.505                   36.779                   37.646                   39.303                   39.748                   40.032                   40.129                   30.989                   31.403                   32.184                   32.391                   32.523                   32.568                   29.082                   29.307                   29.689                   29.781                   29.837                   29.856
12.000                   3.0000                   1.0000                   1.7000                   2000.0                   4000.0                   75.000                   1111.8                   1197.9                   1259.2                   1257.4                   1251.7                   1248.9                   1107.0                   1194.7                   1256.9                   1255.2                   1249.5                   1246.7                   1104.4                   1190.9                   1252.1                   1250.3                   1244.7                   1241.9                   897.39                   1061.9                   1191.1                   1194.2                   1190.5                   1188.1                   512.65                   555.34                   643.67                   669.67                   684.78                   687.84                   192.38                   203.41                   224.74                   230.52                   234.21                   235.31                   70.273                   73.077                   78.421                   79.850                   80.761                   81.067                   38.066                   38.939                   40.608                   41.055                   41.341                   41.438                   31.723                   32.139                   32.923                   33.131                   33.263                   33.309                   29.643                   29.869                   30.251                   30.342                   30.399                   30.417