% Model:              batchmodel_COIL_N_12_COIL_kr_3_COIL_kh_2_COIL_kturn_1.7_FUNZ_freq_10000_FUNZ_I_eff_4000.mph
% Version:            COMSOL 5.6.0.280
% Date:               Feb 2 2022, 04:11
% Table:              Tabella 1 - GRIGLIA_T
% COIL_N                 COIL_kr                  COIL_kh                  COIL_kturn               FUNZ_freq                FUNZ_I_eff               Time (s)                 Temperatura (degC), Punto: (0, 0)Temperatura (degC), Punto: (15, 0)Temperatura (degC), Punto: (28.051, 0)Temperatura (degC), Punto: (29.025, 0)Temperatura (degC), Punto: (29.61, 0)Temperatura (degC), Punto: (29.805, 0)Temperatura (degC), Punto: (0, 62.5)Temperatura (degC), Punto: (15, 62.5)Temperatura (degC), Punto: (28.051, 62.5)Temperatura (degC), Punto: (29.025, 62.5)Temperatura (degC), Punto: (29.61, 62.5)Temperatura (degC), Punto: (29.805, 62.5)Temperatura (degC), Punto: (0, 125)Temperatura (degC), Punto: (15, 125)Temperatura (degC), Punto: (28.051, 125)Temperatura (degC), Punto: (29.025, 125)Temperatura (degC), Punto: (29.61, 125)Temperatura (degC), Punto: (29.805, 125)Temperatura (degC), Punto: (0, 187.5)Temperatura (degC), Punto: (15, 187.5)Temperatura (degC), Punto: (28.051, 187.5)Temperatura (degC), Punto: (29.025, 187.5)Temperatura (degC), Punto: (29.61, 187.5)Temperatura (degC), Punto: (29.805, 187.5)Temperatura (degC), Punto: (0, 250)Temperatura (degC), Punto: (15, 250)Temperatura (degC), Punto: (28.051, 250)Temperatura (degC), Punto: (29.025, 250)Temperatura (degC), Punto: (29.61, 250)Temperatura (degC), Punto: (29.805, 250)Temperatura (degC), Punto: (0, 312.5)Temperatura (degC), Punto: (15, 312.5)Temperatura (degC), Punto: (28.051, 312.5)Temperatura (degC), Punto: (29.025, 312.5)Temperatura (degC), Punto: (29.61, 312.5)Temperatura (degC), Punto: (29.805, 312.5)Temperatura (degC), Punto: (0, 375)Temperatura (degC), Punto: (15, 375)Temperatura (degC), Punto: (28.051, 375)Temperatura (degC), Punto: (29.025, 375)Temperatura (degC), Punto: (29.61, 375)Temperatura (degC), Punto: (29.805, 375)Temperatura (degC), Punto: (0, 437.5)Temperatura (degC), Punto: (15, 437.5)Temperatura (degC), Punto: (28.051, 437.5)Temperatura (degC), Punto: (29.025, 437.5)Temperatura (degC), Punto: (29.61, 437.5)Temperatura (degC), Punto: (29.805, 437.5)Temperatura (degC), Punto: (0, 468.75)Temperatura (degC), Punto: (15, 468.75)Temperatura (degC), Punto: (28.051, 468.75)Temperatura (degC), Punto: (29.025, 468.75)Temperatura (degC), Punto: (29.61, 468.75)Temperatura (degC), Punto: (29.805, 468.75)Temperatura (degC), Punto: (0, 492.19)Temperatura (degC), Punto: (15, 492.19)Temperatura (degC), Punto: (28.051, 492.19)Temperatura (degC), Punto: (29.025, 492.19)Temperatura (degC), Punto: (29.61, 492.19)Temperatura (degC), Punto: (29.805, 492.19)
12.000                   3.0000                   2.0000                   1.7000                   10000                    4000.0                   0.0000                   20.000                   20.000                   20.000                   20.000                   20.180                   20.443                   20.000                   20.000                   20.000                   20.000                   20.180                   20.443                   20.000                   20.000                   20.000                   20.000                   20.181                   20.444                   20.000                   20.000                   20.000                   20.000                   20.181                   20.444                   20.000                   20.000                   20.000                   20.000                   20.182                   20.445                   20.000                   20.000                   20.000                   20.000                   20.180                   20.443                   20.000                   20.000                   20.000                   20.000                   20.147                   20.385                   20.000                   20.000                   20.000                   20.000                   20.027                   20.131                   20.000                   20.000                   20.000                   20.000                   20.007                   20.057                   20.000                   20.000                   20.000                   20.000                   20.002                   20.026
12.000                   3.0000                   2.0000                   1.7000                   10000                    4000.0                   5.0000                   32.001                   81.111                   396.56                   449.67                   480.74                   487.39                   32.070                   81.895                   399.21                   452.60                   483.55                   490.15                   31.955                   81.356                   398.04                   451.16                   481.25                   487.77                   31.999                   81.655                   400.48                   454.17                   484.28                   490.65                   31.907                   81.235                   398.13                   451.90                   483.09                   489.70                   31.805                   80.543                   392.04                   444.99                   475.67                   482.16                   30.032                   71.551                   325.61                   365.68                   389.95                   395.47                   23.885                   39.816                   129.04                   140.44                   147.19                   149.33                   22.565                   33.382                   91.213                   97.225                   99.975                   100.74                   25.828                   39.638                   89.769                   94.003                   95.453                   95.951
12.000                   3.0000                   2.0000                   1.7000                   10000                    4000.0                   10.000                   113.09                   223.63                   705.25                   790.80                   838.62                   847.89                   113.56                   224.56                   707.81                   795.42                   844.26                   853.58                   113.15                   223.92                   709.22                   798.28                   847.71                   856.97                   113.46                   224.49                   708.12                   794.18                   842.95                   852.36                   113.08                   223.99                   707.47                   794.98                   844.02                   853.33                   111.97                   221.41                   695.02                   777.22                   823.68                   832.72                   98.442                   191.80                   579.46                   638.61                   671.76                   678.51                   51.982                   88.209                   206.68                   219.54                   226.75                   228.62                   41.331                   63.926                   131.90                   138.45                   142.04                   143.18                   45.944                   67.231                   115.22                   118.26                   119.39                   119.76
12.000                   3.0000                   2.0000                   1.7000                   10000                    4000.0                   15.000                   230.71                   367.61                   917.38                   987.81                   1017.8                   1022.8                   231.23                   368.43                   962.03                   1047.3                   1075.4                   1079.1                   230.83                   368.04                   968.87                   1055.4                   1082.5                   1086.0                   231.23                   368.48                   932.91                   1006.6                   1035.9                   1040.5                   230.72                   368.00                   965.25                   1050.1                   1077.4                   1080.9                   228.34                   364.15                   917.29                   989.03                   1019.3                   1024.2                   200.83                   319.00                   760.94                   836.29                   875.29                   882.55                   98.190                   143.94                   273.95                   288.10                   296.77                   299.06                   69.480                   93.902                   151.37                   156.75                   160.03                   161.04                   68.360                   86.289                   119.26                   121.71                   123.17                   123.63
12.000                   3.0000                   2.0000                   1.7000                   10000                    4000.0                   20.000                   344.64                   484.19                   915.22                   953.50                   971.23                   974.38                   345.29                   488.47                   1094.8                   1131.6                   1140.3                   1140.9                   345.01                   487.61                   1056.1                   1096.7                   1107.2                   1108.1                   345.28                   486.48                   974.91                   1016.3                   1031.6                   1033.9                   344.82                   487.25                   1058.8                   1099.9                   1110.5                   1111.4                   341.81                   481.55                   916.30                   954.15                   971.73                   974.88                   304.09                   429.29                   900.61                   968.56                   999.13                   1004.3                   150.91                   200.67                   339.89                   355.22                   364.57                   366.95                   98.397                   121.65                   178.24                   183.80                   187.22                   188.26                   87.547                   102.11                   131.11                   133.53                   134.99                   135.45
12.000                   3.0000                   2.0000                   1.7000                   10000                    4000.0                   25.000                   440.94                   572.68                   956.93                   984.21                   996.44                   998.58                   441.92                   580.29                   1117.5                   1139.9                   1144.5                   1144.5                   441.73                   578.47                   1084.2                   1110.4                   1116.6                   1116.9                   441.82                   576.25                   1026.3                   1057.0                   1066.5                   1067.5                   441.45                   577.72                   1089.1                   1115.4                   1121.5                   1121.8                   438.43                   570.87                   960.02                   987.90                   1000.2                   1002.3                   395.71                   521.06                   1023.3                   1070.2                   1084.0                   1085.5                   204.01                   256.15                   403.58                   419.92                   429.80                   432.23                   126.76                   149.89                   207.86                   213.67                   217.25                   218.33                   105.53                   118.71                   146.74                   149.19                   150.67                   151.15
12.000                   3.0000                   2.0000                   1.7000                   10000                    4000.0                   30.000                   517.55                   639.37                   1017.2                   1039.9                   1047.5                   1048.4                   518.74                   647.30                   1111.9                   1128.7                   1131.8                   1131.6                   518.62                   645.36                   1089.6                   1108.7                   1112.8                   1112.7                   518.61                   643.18                   1060.6                   1082.5                   1088.2                   1088.5                   518.28                   644.38                   1090.8                   1110.1                   1114.3                   1114.3                   515.48                   638.25                   1020.7                   1043.5                   1051.1                   1051.9                   471.82                   594.22                   1085.2                   1115.1                   1122.1                   1122.4                   254.71                   308.68                   462.69                   479.81                   490.08                   492.55                   155.35                   178.90                   238.88                   244.97                   248.72                   249.84                   124.08                   136.91                   164.99                   167.49                   169.01                   169.49
12.000                   3.0000                   2.0000                   1.7000                   10000                    4000.0                   35.000                   581.39                   693.43                   1065.0                   1082.4                   1086.5                   1086.6                   582.57                   700.35                   1105.4                   1118.6                   1120.9                   1120.5                   582.55                   698.75                   1093.7                   1107.9                   1110.6                   1110.4                   582.52                   697.08                   1082.7                   1098.1                   1101.4                   1101.2                   582.22                   697.73                   1093.0                   1107.6                   1110.4                   1110.1                   579.72                   692.86                   1067.2                   1084.4                   1088.4                   1088.4                   537.41                   654.50                   1100.4                   1119.3                   1123.2                   1123.1                   302.82                   358.20                   517.22                   535.00                   545.59                   548.08                   184.14                   208.23                   270.43                   276.79                   280.72                   281.87                   143.53                   156.36                   184.83                   187.39                   188.94                   189.44
12.000                   3.0000                   2.0000                   1.7000                   10000                    4000.0                   40.000                   634.08                   738.85                   1091.5                   1103.6                   1105.7                   1105.4                   635.11                   744.51                   1106.0                   1116.4                   1117.9                   1117.4                   635.20                   743.48                   1101.5                   1112.3                   1113.9                   1113.5                   635.18                   742.33                   1098.0                   1109.2                   1110.9                   1110.5                   634.91                   742.51                   1100.7                   1111.7                   1113.4                   1113.0                   632.77                   738.65                   1092.8                   1104.8                   1106.8                   1106.5                   593.57                   704.06                   1101.4                   1115.0                   1117.4                   1117.1                   348.09                   404.37                   566.40                   584.58                   595.36                   597.84                   212.89                   237.62                   302.01                   308.63                   312.72                   313.89                   163.91                   176.88                   205.87                   208.49                   210.09                   210.59
12.000                   3.0000                   2.0000                   1.7000                   10000                    4000.0                   45.000                   676.98                   782.01                   1107.1                   1115.8                   1116.7                   1116.2                   677.81                   786.24                   1112.0                   1120.1                   1120.8                   1120.3                   677.97                   785.88                   1110.8                   1119.0                   1119.8                   1119.2                   677.96                   785.16                   1110.0                   1118.2                   1119.1                   1118.5                   677.75                   785.08                   1110.4                   1118.7                   1119.5                   1119.0                   675.98                   781.83                   1108.1                   1116.6                   1117.5                   1117.0                   640.94                   746.15                   1102.6                   1113.0                   1114.5                   1114.1                   390.39                   447.01                   610.06                   628.50                   639.40                   641.86                   241.47                   266.85                   333.34                   340.21                   344.44                   345.64                   185.07                   198.23                   227.82                   230.50                   232.13                   232.65
12.000                   3.0000                   2.0000                   1.7000                   10000                    4000.0                   50.000                   710.05                   825.81                   1118.7                   1125.0                   1125.2                   1124.5                   710.52                   828.61                   1120.4                   1126.5                   1126.6                   1126.0                   710.70                   828.82                   1120.3                   1126.5                   1126.6                   1125.9                   710.70                   828.51                   1120.4                   1126.5                   1126.6                   1126.0                   710.56                   828.32                   1120.4                   1126.6                   1126.7                   1126.0                   709.21                   825.49                   1119.3                   1125.6                   1125.8                   1125.2                   680.02                   785.83                   1106.6                   1114.8                   1115.6                   1115.1                   429.62                   486.13                   648.68                   667.34                   678.31                   680.75                   269.71                   295.70                   364.20                   371.31                   375.69                   376.91                   206.81                   220.20                   250.42                   253.17                   254.84                   255.37
12.000                   3.0000                   2.0000                   1.7000                   10000                    4000.0                   55.000                   739.01                   868.17                   1128.7                   1133.5                   1133.1                   1132.4                   739.45                   870.03                   1129.5                   1134.2                   1133.8                   1133.1                   739.72                   870.51                   1129.8                   1134.5                   1134.1                   1133.3                   739.75                   870.46                   1130.0                   1134.7                   1134.3                   1133.5                   739.64                   870.29                   1130.1                   1134.7                   1134.4                   1133.6                   738.03                   867.59                   1129.1                   1133.9                   1133.6                   1132.8                   708.78                   824.24                   1112.5                   1119.0                   1119.3                   1118.7                   464.33                   520.21                   680.64                   699.32                   710.34                   712.76                   297.05                   323.56                   393.76                   401.07                   405.55                   406.79                   229.01                   242.63                   273.45                   276.26                   277.97                   278.51
12.000                   3.0000                   2.0000                   1.7000                   10000                    4000.0                   60.000                   767.98                   909.33                   1138.3                   1141.8                   1141.0                   1140.2                   768.68                   910.55                   1138.8                   1142.2                   1141.5                   1140.6                   769.12                   911.15                   1139.1                   1142.6                   1141.8                   1141.0                   769.19                   911.23                   1139.4                   1142.9                   1142.1                   1141.2                   769.08                   911.14                   1139.6                   1143.0                   1142.2                   1141.4                   766.69                   908.40                   1138.5                   1142.0                   1141.2                   1140.4                   732.61                   861.82                   1118.8                   1123.9                   1123.7                   1123.0                   496.76                   551.72                   709.24                   727.86                   738.92                   741.33                   323.85                   350.85                   422.56                   430.02                   434.60                   435.85                   251.37                   265.24                   296.63                   299.49                   301.23                   301.78
12.000                   3.0000                   2.0000                   1.7000                   10000                    4000.0                   65.000                   807.33                   947.82                   1148.4                   1150.9                   1149.8                   1148.9                   808.18                   948.62                   1148.8                   1151.2                   1150.1                   1149.2                   808.75                   949.27                   1149.2                   1151.6                   1150.5                   1149.6                   808.83                   949.42                   1149.5                   1151.9                   1150.8                   1149.8                   808.74                   949.40                   1149.7                   1152.1                   1150.9                   1150.0                   805.60                   946.54                   1148.4                   1150.9                   1149.7                   1148.9                   761.80                   897.36                   1125.5                   1129.4                   1128.8                   1128.1                   526.61                   580.32                   735.08                   753.78                   764.88                   767.27                   349.80                   377.21                   450.16                   457.77                   462.43                   463.68                   273.66                   287.74                   319.64                   322.54                   324.31                   324.86
12.000                   3.0000                   2.0000                   1.7000                   10000                    4000.0                   70.000                   854.98                   984.19                   1159.0                   1160.6                   1159.2                   1158.2                   855.86                   984.73                   1159.3                   1160.9                   1159.4                   1158.5                   856.54                   985.37                   1159.7                   1161.3                   1159.9                   1158.9                   856.62                   985.53                   1160.0                   1161.6                   1160.2                   1159.2                   856.57                   985.57                   1160.2                   1161.8                   1160.4                   1159.4                   852.69                   982.53                   1158.7                   1160.3                   1158.9                   1157.9                   795.28                   931.26                   1132.4                   1135.3                   1134.4                   1133.6                   554.39                   606.60                   758.70                   777.62                   788.74                   791.10                   375.08                   402.82                   476.83                   484.56                   489.28                   490.54                   295.90                   310.17                   342.51                   345.45                   347.25                   347.80
12.000                   3.0000                   2.0000                   1.7000                   10000                    4000.0                   75.000                   902.10                   1017.9                   1170.7                   1171.6                   1169.9                   1168.9                   902.91                   1018.2                   1170.9                   1171.8                   1170.1                   1169.1                   903.62                   1018.8                   1171.3                   1172.2                   1170.5                   1169.5                   903.68                   1019.0                   1171.7                   1172.6                   1170.9                   1169.8                   903.66                   1019.1                   1171.9                   1172.8                   1171.1                   1170.1                   899.35                   1015.8                   1170.0                   1170.9                   1169.3                   1168.3                   833.79                   962.78                   1139.9                   1141.9                   1140.7                   1139.8                   579.85                   630.57                   781.21                   800.20                   811.23                   813.53                   399.40                   427.39                   502.26                   510.10                   514.89                   516.14                   317.85                   332.28                   364.98                   367.95                   369.77                   370.32