% Model:              batchmodel_COIL_N_12_COIL_kr_3_COIL_kh_3_COIL_kturn_1.1_FUNZ_freq_6000_FUNZ_I_eff_2500.mph
% Version:            COMSOL 5.6.0.280
% Date:               Feb 2 2022, 03:45
% Table:              Tabella 1 - GRIGLIA_T
% COIL_N                 COIL_kr                  COIL_kh                  COIL_kturn               FUNZ_freq                FUNZ_I_eff               Time (s)                 Temperatura (degC), Punto: (0, 0)Temperatura (degC), Punto: (15, 0)Temperatura (degC), Punto: (27.483, 0)Temperatura (degC), Punto: (28.742, 0)Temperatura (degC), Punto: (29.497, 0)Temperatura (degC), Punto: (29.748, 0)Temperatura (degC), Punto: (0, 62.5)Temperatura (degC), Punto: (15, 62.5)Temperatura (degC), Punto: (27.483, 62.5)Temperatura (degC), Punto: (28.742, 62.5)Temperatura (degC), Punto: (29.497, 62.5)Temperatura (degC), Punto: (29.748, 62.5)Temperatura (degC), Punto: (0, 125)Temperatura (degC), Punto: (15, 125)Temperatura (degC), Punto: (27.483, 125)Temperatura (degC), Punto: (28.742, 125)Temperatura (degC), Punto: (29.497, 125)Temperatura (degC), Punto: (29.748, 125)Temperatura (degC), Punto: (0, 187.5)Temperatura (degC), Punto: (15, 187.5)Temperatura (degC), Punto: (27.483, 187.5)Temperatura (degC), Punto: (28.742, 187.5)Temperatura (degC), Punto: (29.497, 187.5)Temperatura (degC), Punto: (29.748, 187.5)Temperatura (degC), Punto: (0, 250)Temperatura (degC), Punto: (15, 250)Temperatura (degC), Punto: (27.483, 250)Temperatura (degC), Punto: (28.742, 250)Temperatura (degC), Punto: (29.497, 250)Temperatura (degC), Punto: (29.748, 250)Temperatura (degC), Punto: (0, 312.5)Temperatura (degC), Punto: (15, 312.5)Temperatura (degC), Punto: (27.483, 312.5)Temperatura (degC), Punto: (28.742, 312.5)Temperatura (degC), Punto: (29.497, 312.5)Temperatura (degC), Punto: (29.748, 312.5)Temperatura (degC), Punto: (0, 375)Temperatura (degC), Punto: (15, 375)Temperatura (degC), Punto: (27.483, 375)Temperatura (degC), Punto: (28.742, 375)Temperatura (degC), Punto: (29.497, 375)Temperatura (degC), Punto: (29.748, 375)Temperatura (degC), Punto: (0, 437.5)Temperatura (degC), Punto: (15, 437.5)Temperatura (degC), Punto: (27.483, 437.5)Temperatura (degC), Punto: (28.742, 437.5)Temperatura (degC), Punto: (29.497, 437.5)Temperatura (degC), Punto: (29.748, 437.5)Temperatura (degC), Punto: (0, 468.75)Temperatura (degC), Punto: (15, 468.75)Temperatura (degC), Punto: (27.483, 468.75)Temperatura (degC), Punto: (28.742, 468.75)Temperatura (degC), Punto: (29.497, 468.75)Temperatura (degC), Punto: (29.748, 468.75)Temperatura (degC), Punto: (0, 492.19)Temperatura (degC), Punto: (15, 492.19)Temperatura (degC), Punto: (27.483, 492.19)Temperatura (degC), Punto: (28.742, 492.19)Temperatura (degC), Punto: (29.497, 492.19)Temperatura (degC), Punto: (29.748, 492.19)
12.000                   3.0000                   3.0000                   1.1000                   6000.0                   2500.0                   0.0000                   20.000                   20.000                   20.000                   20.000                   20.036                   20.134                   20.000                   20.000                   20.000                   20.000                   20.036                   20.134                   20.000                   20.000                   20.000                   20.000                   20.036                   20.134                   20.000                   20.000                   20.000                   20.000                   20.036                   20.134                   20.000                   20.000                   20.000                   20.000                   20.036                   20.134                   20.000                   20.000                   20.000                   20.000                   20.035                   20.133                   20.000                   20.000                   20.000                   20.000                   20.025                   20.109                   20.000                   20.000                   20.000                   20.000                   20.003                   20.032                   20.000                   20.000                   20.000                   20.000                   20.001                   20.012                   20.000                   20.000                   20.000                   20.000                   20.000                   20.003
12.000                   3.0000                   3.0000                   1.1000                   6000.0                   2500.0                   5.0000                   23.337                   37.607                   118.16                   133.56                   143.49                   146.24                   23.346                   37.700                   118.37                   133.77                   143.70                   146.45                   23.328                   37.671                   118.52                   133.93                   143.86                   146.61                   23.329                   37.685                   118.58                   133.99                   143.93                   146.69                   23.384                   37.808                   118.50                   133.89                   143.82                   146.57                   23.843                   39.290                   121.24                   136.57                   146.43                   149.15                   23.351                   36.644                   104.46                   116.75                   124.69                   126.98                   20.843                   25.045                   48.904                   52.830                   55.274                   56.062                   20.450                   22.611                   33.901                   35.677                   36.794                   37.167                   20.755                   22.790                   30.704                   31.629                   32.125                   32.284
12.000                   3.0000                   3.0000                   1.1000                   6000.0                   2500.0                   10.000                   50.780                   85.441                   198.14                   216.29                   227.67                   230.65                   50.791                   85.440                   198.01                   216.13                   227.49                   230.47                   50.762                   85.443                   198.30                   216.46                   227.81                   230.78                   50.768                   85.437                   198.03                   216.17                   227.55                   230.53                   50.928                   85.648                   198.42                   216.57                   227.96                   230.94                   51.994                   86.966                   198.89                   216.80                   228.04                   230.99                   46.419                   74.956                   163.83                   177.80                   186.67                   189.09                   29.381                   39.923                   73.058                   77.065                   79.466                   80.258                   24.715                   29.509                   42.629                   44.452                   45.565                   45.936                   24.273                   28.410                   40.377                   41.721                   42.072                   42.197
12.000                   3.0000                   3.0000                   1.1000                   6000.0                   2500.0                   15.000                   94.930                   141.55                   275.39                   296.21                   309.08                   312.29                   94.876                   141.42                   275.00                   295.77                   308.62                   311.83                   94.873                   141.49                   275.50                   296.32                   309.17                   312.38                   94.875                   141.45                   275.16                   295.97                   308.84                   312.05                   95.112                   141.74                   275.54                   296.34                   309.20                   312.41                   95.903                   142.11                   273.93                   294.36                   307.01                   310.17                   81.655                   118.55                   220.61                   235.96                   245.56                   248.10                   43.556                   57.856                   96.735                   101.28                   103.88                   104.73                   31.632                   37.710                   52.145                   54.015                   55.131                   55.497                   29.988                   35.773                   51.434                   53.069                   53.466                   53.592
12.000                   3.0000                   3.0000                   1.1000                   6000.0                   2500.0                   20.000                   147.54                   201.56                   353.37                   377.03                   391.46                   394.87                   147.41                   201.33                   352.85                   376.47                   390.88                   394.29                   147.44                   201.44                   353.42                   377.10                   391.51                   394.92                   147.44                   201.40                   353.07                   376.73                   391.15                   394.56                   147.71                   201.71                   353.43                   377.08                   391.50                   394.91                   147.54                   200.68                   349.35                   372.45                   386.54                   389.89                   122.98                   164.78                   277.19                   293.99                   304.35                   306.97                   61.462                   77.939                   120.62                   125.57                   128.37                   129.26                   40.749                   47.591                   63.051                   64.990                   66.146                   66.523                   37.690                   44.642                   62.614                   64.492                   64.950                   65.083
12.000                   3.0000                   3.0000                   1.1000                   6000.0                   2500.0                   25.000                   202.90                   262.82                   431.66                   458.22                   474.19                   477.79                   202.69                   262.50                   431.09                   457.62                   473.57                   477.16                   202.76                   262.66                   431.66                   458.25                   474.21                   477.80                   202.75                   262.61                   431.31                   457.87                   473.84                   477.43                   203.03                   262.92                   431.69                   458.24                   474.21                   477.80                   201.66                   260.34                   425.00                   450.81                   466.35                   469.88                   166.31                   211.93                   333.96                   352.26                   363.40                   366.11                   80.796                   98.871                   144.69                   149.98                   152.95                   153.88                   50.831                   58.285                   74.732                   76.759                   77.967                   78.359                   46.240                   54.129                   73.701                   75.771                   76.287                   76.430
12.000                   3.0000                   3.0000                   1.1000                   6000.0                   2500.0                   30.000                   259.75                   324.39                   509.55                   539.16                   556.65                   560.40                   259.50                   324.03                   509.01                   538.61                   556.08                   559.83                   259.59                   324.20                   509.48                   539.09                   556.55                   560.30                   259.57                   324.14                   509.18                   538.77                   556.24                   559.99                   259.84                   324.45                   509.60                   539.20                   556.66                   560.42                   257.07                   320.25                   500.48                   529.18                   546.16                   549.84                   211.08                   259.65                   390.80                   410.45                   422.17                   424.98                   102.14                   121.31                   170.07                   175.71                   178.82                   179.80                   62.877                   70.872                   88.434                   90.581                   91.858                   92.271                   56.671                   65.498                   87.008                   89.287                   89.843                   89.992
12.000                   3.0000                   3.0000                   1.1000                   6000.0                   2500.0                   35.000                   316.00                   385.01                   585.96                   618.93                   638.19                   642.15                   315.71                   384.63                   585.49                   618.46                   637.71                   641.67                   315.82                   384.80                   585.86                   618.83                   638.03                   641.98                   315.80                   384.75                   585.60                   618.55                   637.79                   641.75                   316.05                   385.04                   586.03                   618.99                   638.22                   642.19                   312.00                   379.46                   575.22                   607.18                   625.86                   629.73                   255.83                   307.40                   448.29                   469.47                   481.86                   484.80                   123.98                   144.19                   195.67                   201.68                   204.95                   205.97                   75.579                   84.080                   102.73                   105.00                   106.36                   106.79                   67.607                   77.195                   100.17                   102.60                   103.20                   103.36
12.000                   3.0000                   3.0000                   1.1000                   6000.0                   2500.0                   40.000                   371.53                   444.50                   660.61                   697.30                   718.65                   722.87                   371.23                   444.13                   660.23                   696.96                   718.30                   722.52                   371.34                   444.29                   660.51                   697.25                   718.48                   722.69                   371.32                   444.24                   660.30                   697.00                   718.31                   722.53                   371.54                   444.50                   660.69                   697.41                   718.71                   722.94                   366.32                   437.81                   649.06                   684.74                   705.42                   709.54                   300.57                   355.19                   506.56                   529.50                   542.66                   545.75                   146.43                   167.60                   221.53                   227.92                   231.38                   232.44                   89.064                   98.028                   117.73                   120.14                   121.58                   122.04                   79.147                   89.283                   113.15                   115.67                   116.33                   116.50
12.000                   3.0000                   3.0000                   1.1000                   6000.0                   2500.0                   45.000                   423.13                   498.74                   727.74                   770.93                   794.88                   799.47                   422.83                   498.39                   727.38                   770.57                   794.52                   799.11                   422.93                   498.54                   727.61                   770.82                   794.69                   799.26                   422.92                   498.50                   727.46                   770.65                   794.58                   799.17                   423.10                   498.71                   727.79                   770.98                   794.91                   799.51                   416.96                   491.13                   713.57                   754.98                   778.23                   782.73                   344.47                   402.25                   566.11                   591.94                   606.84                   610.16                   168.84                   190.04                   242.36                   248.90                   252.67                   253.80                   102.91                   111.92                   131.81                   134.29                   135.80                   136.28                   89.552                   98.312                   116.84                   118.70                   119.34                   119.52
12.000                   3.0000                   3.0000                   1.1000                   6000.0                   2500.0                   50.000                   473.16                   550.89                   793.14                   843.12                   869.52                   874.45                   472.87                   550.58                   792.76                   842.73                   869.14                   874.06                   472.97                   550.70                   792.96                   842.94                   869.30                   874.22                   472.96                   550.68                   792.88                   842.86                   869.27                   874.20                   473.10                   550.84                   793.14                   843.13                   869.54                   874.46                   466.13                   542.46                   775.90                   823.33                   849.06                   853.92                   387.88                   448.76                   625.01                   653.89                   670.71                   674.27                   191.19                   212.17                   261.95                   268.59                   272.70                   273.90                   116.84                   125.76                   145.60                   148.14                   149.71                   150.21                   99.538                   106.42                   118.19                   119.24                   119.84                   120.03
12.000                   3.0000                   3.0000                   1.1000                   6000.0                   2500.0                   55.000                   518.97                   597.36                   864.43                   915.29                   940.69                   945.21                   518.71                   597.08                   864.14                   915.01                   940.40                   944.92                   518.79                   597.18                   864.26                   915.12                   940.50                   945.01                   518.80                   597.18                   864.29                   915.18                   940.59                   945.11                   518.90                   597.31                   864.61                   915.51                   940.92                   945.44                   511.26                   588.40                   845.49                   895.33                   920.63                   925.20                   428.65                   491.50                   672.23                   702.22                   719.69                   723.31                   213.10                   234.20                   284.81                   291.68                   295.95                   297.18                   130.46                   139.31                   159.31                   161.91                   163.51                   164.03                   108.66                   114.47                   124.70                   125.70                   126.29                   126.49
12.000                   3.0000                   3.0000                   1.1000                   6000.0                   2500.0                   60.000                   562.41                   640.70                   924.27                   972.96                   995.88                   999.74                   562.18                   640.47                   924.11                   972.81                   995.71                   999.57                   562.25                   640.55                   924.07                   972.72                   995.64                   999.50                   562.26                   640.56                   924.16                   972.86                   995.79                   999.65                   562.33                   640.65                   924.29                   972.96                   995.90                   999.76                   554.28                   631.69                   907.96                   957.20                   980.62                   984.62                   468.02                   532.13                   715.62                   747.02                   765.20                   768.89                   234.87                   256.18                   307.74                   314.81                   319.22                   320.47                   144.02                   152.84                   173.02                   175.67                   177.31                   177.84                   117.81                   122.82                   131.94                   132.90                   133.49                   133.68
12.000                   3.0000                   3.0000                   1.1000                   6000.0                   2500.0                   65.000                   602.19                   679.25                   966.51                   1008.3                   1026.5                   1029.3                   601.99                   679.07                   966.55                   1008.3                   1026.5                   1029.3                   602.05                   679.14                   966.20                   1007.9                   1026.1                   1028.9                   602.07                   679.15                   966.30                   1008.0                   1026.2                   1029.0                   602.11                   679.21                   965.84                   1007.4                   1025.6                   1028.5                   594.06                   670.91                   959.50                   1003.5                   1022.8                   1025.8                   505.23                   569.54                   753.12                   786.41                   805.40                   809.14                   256.44                   278.07                   330.77                   338.02                   342.51                   343.77                   157.51                   166.35                   186.75                   189.44                   191.11                   191.64                   127.02                   131.61                   140.29                   141.26                   141.84                   142.03
12.000                   3.0000                   3.0000                   1.1000                   6000.0                   2500.0                   70.000                   637.45                   712.68                   1004.0                   1039.0                   1052.0                   1053.6                   637.30                   712.48                   1001.3                   1035.9                   1049.0                   1050.7                   637.31                   712.08                   988.32                   1021.6                   1035.3                   1037.2                   637.32                   711.93                   984.63                   1017.6                   1031.4                   1033.4                   637.32                   711.74                   981.47                   1014.2                   1028.2                   1030.3                   629.78                   705.50                   1002.0                   1038.2                   1051.7                   1053.5                   540.01                   603.52                   789.87                   824.21                   843.20                   846.84                   277.68                   299.61                   353.19                   360.56                   365.12                   366.39                   170.96                   179.83                   200.39                   203.10                   204.79                   205.32                   136.52                   140.88                   149.35                   150.31                   150.89                   151.08
12.000                   3.0000                   3.0000                   1.1000                   6000.0                   2500.0                   75.000                   669.18                   743.42                   1035.3                   1063.6                   1071.9                   1072.5                   669.08                   743.17                   1029.5                   1057.1                   1065.5                   1066.2                   669.02                   741.96                   1001.3                   1026.6                   1036.2                   1037.5                   669.00                   741.51                   992.57                   1017.0                   1027.0                   1028.5                   668.94                   740.91                   986.05                   1010.2                   1020.6                   1022.1                   662.30                   737.47                   1035.5                   1063.4                   1071.4                   1072.0                   572.83                   635.01                   825.22                   859.81                   878.32                   881.80                   298.62                   320.83                   375.15                   382.61                   387.23                   388.50                   184.39                   193.30                   213.99                   216.73                   218.42                   218.96                   146.26                   150.49                   158.84                   159.79                   160.37                   160.55