% Model:              batchmodel_COIL_N_12_COIL_kr_1.5_COIL_kh_1_COIL_kturn_1.1_FUNZ_freq_10000_FUNZ_I_eff_1000.mph
% Version:            COMSOL 5.6.0.280
% Date:               Feb 1 2022, 12:06
% Table:              Tabella 1 - GRIGLIA_T
% COIL_N                 COIL_kr                  COIL_kh                  COIL_kturn               FUNZ_freq                FUNZ_I_eff               Time (s)                 Temperatura (degC), Punto: (0, 0)Temperatura (degC), Punto: (15, 0)Temperatura (degC), Punto: (28.051, 0)Temperatura (degC), Punto: (29.025, 0)Temperatura (degC), Punto: (29.61, 0)Temperatura (degC), Punto: (29.805, 0)Temperatura (degC), Punto: (0, 62.5)Temperatura (degC), Punto: (15, 62.5)Temperatura (degC), Punto: (28.051, 62.5)Temperatura (degC), Punto: (29.025, 62.5)Temperatura (degC), Punto: (29.61, 62.5)Temperatura (degC), Punto: (29.805, 62.5)Temperatura (degC), Punto: (0, 125)Temperatura (degC), Punto: (15, 125)Temperatura (degC), Punto: (28.051, 125)Temperatura (degC), Punto: (29.025, 125)Temperatura (degC), Punto: (29.61, 125)Temperatura (degC), Punto: (29.805, 125)Temperatura (degC), Punto: (0, 187.5)Temperatura (degC), Punto: (15, 187.5)Temperatura (degC), Punto: (28.051, 187.5)Temperatura (degC), Punto: (29.025, 187.5)Temperatura (degC), Punto: (29.61, 187.5)Temperatura (degC), Punto: (29.805, 187.5)Temperatura (degC), Punto: (0, 250)Temperatura (degC), Punto: (15, 250)Temperatura (degC), Punto: (28.051, 250)Temperatura (degC), Punto: (29.025, 250)Temperatura (degC), Punto: (29.61, 250)Temperatura (degC), Punto: (29.805, 250)Temperatura (degC), Punto: (0, 312.5)Temperatura (degC), Punto: (15, 312.5)Temperatura (degC), Punto: (28.051, 312.5)Temperatura (degC), Punto: (29.025, 312.5)Temperatura (degC), Punto: (29.61, 312.5)Temperatura (degC), Punto: (29.805, 312.5)Temperatura (degC), Punto: (0, 375)Temperatura (degC), Punto: (15, 375)Temperatura (degC), Punto: (28.051, 375)Temperatura (degC), Punto: (29.025, 375)Temperatura (degC), Punto: (29.61, 375)Temperatura (degC), Punto: (29.805, 375)Temperatura (degC), Punto: (0, 437.5)Temperatura (degC), Punto: (15, 437.5)Temperatura (degC), Punto: (28.051, 437.5)Temperatura (degC), Punto: (29.025, 437.5)Temperatura (degC), Punto: (29.61, 437.5)Temperatura (degC), Punto: (29.805, 437.5)Temperatura (degC), Punto: (0, 468.75)Temperatura (degC), Punto: (15, 468.75)Temperatura (degC), Punto: (28.051, 468.75)Temperatura (degC), Punto: (29.025, 468.75)Temperatura (degC), Punto: (29.61, 468.75)Temperatura (degC), Punto: (29.805, 468.75)Temperatura (degC), Punto: (0, 492.19)Temperatura (degC), Punto: (15, 492.19)Temperatura (degC), Punto: (28.051, 492.19)Temperatura (degC), Punto: (29.025, 492.19)Temperatura (degC), Punto: (29.61, 492.19)Temperatura (degC), Punto: (29.805, 492.19)
12.000                   1.5000                   1.0000                   1.1000                   10000                    1000.0                   0.0000                   20.000                   20.000                   20.000                   20.000                   20.095                   20.281                   20.000                   20.000                   20.000                   20.000                   20.095                   20.281                   20.000                   20.000                   20.000                   20.000                   20.072                   20.238                   20.000                   20.000                   20.000                   20.000                   20.000                   20.006                   20.000                   20.000                   20.000                   20.000                   20.000                   20.001                   20.000                   20.000                   20.000                   20.000                   20.000                   20.000                   20.000                   20.000                   20.000                   20.000                   20.000                   20.000                   20.000                   20.000                   20.000                   20.000                   20.000                   20.000                   20.000                   20.000                   20.000                   20.000                   20.000                   20.000                   20.000                   20.000                   20.000                   20.000                   20.000                   20.000
12.000                   1.5000                   1.0000                   1.1000                   10000                    1000.0                   5.0000                   27.158                   52.779                   211.30                   234.76                   249.45                   253.12                   27.082                   52.730                   210.41                   233.45                   247.80                   251.42                   25.496                   45.783                   171.09                   189.45                   201.23                   204.33                   20.132                   20.711                   25.419                   26.078                   26.482                   26.618                   20.012                   20.077                   20.575                   20.647                   20.693                   20.708                   20.007                   20.033                   20.179                   20.198                   20.210                   20.214                   20.004                   20.018                   20.096                   20.106                   20.113                   20.115                   20.003                   20.015                   20.078                   20.087                   20.092                   20.094                   20.003                   20.014                   20.075                   20.083                   20.088                   20.090                   20.003                   20.014                   20.073                   20.081                   20.086                   20.088
12.000                   1.5000                   1.0000                   1.1000                   10000                    1000.0                   10.000                   73.242                   134.42                   361.59                   391.63                   409.67                   413.83                   72.908                   133.80                   360.22                   390.30                   408.39                   412.56                   59.823                   107.13                   283.34                   306.45                   320.68                   324.17                   22.004                   24.243                   31.529                   32.334                   32.834                   33.002                   20.160                   20.371                   21.100                   21.183                   21.236                   21.253                   20.055                   20.116                   20.311                   20.333                   20.346                   20.351                   20.029                   20.060                   20.160                   20.171                   20.178                   20.180                   20.023                   20.049                   20.128                   20.137                   20.143                   20.145                   20.022                   20.046                   20.122                   20.131                   20.136                   20.138                   20.022                   20.046                   20.119                   20.127                   20.132                   20.134
12.000                   1.5000                   1.0000                   1.1000                   10000                    1000.0                   15.000                   145.50                   225.66                   492.79                   526.42                   546.12                   550.74                   145.16                   225.70                   499.65                   535.91                   557.05                   561.65                   114.87                   178.62                   396.10                   424.12                   440.81                   444.63                   26.310                   29.722                   38.942                   39.884                   40.467                   40.662                   20.483                   20.797                   21.693                   21.788                   21.847                   21.867                   20.138                   20.220                   20.450                   20.474                   20.489                   20.494                   20.069                   20.110                   20.222                   20.234                   20.241                   20.243                   20.055                   20.087                   20.174                   20.183                   20.189                   20.191                   20.052                   20.083                   20.165                   20.174                   20.179                   20.181                   20.051                   20.081                   20.161                   20.169                   20.174                   20.176
12.000                   1.5000                   1.0000                   1.1000                   10000                    1000.0                   20.000                   226.11                   317.01                   623.79                   665.75                   689.50                   694.57                   226.01                   317.78                   630.19                   673.52                   698.06                   703.16                   178.37                   252.69                   505.85                   539.07                   558.31                   562.50                   32.757                   37.009                   47.742                   48.807                   49.464                   49.683                   20.947                   21.333                   22.359                   22.464                   22.529                   22.551                   20.245                   20.341                   20.597                   20.623                   20.639                   20.645                   20.119                   20.164                   20.284                   20.296                   20.304                   20.306                   20.093                   20.128                   20.219                   20.228                   20.233                   20.235                   20.088                   20.121                   20.206                   20.215                   20.220                   20.222                   20.086                   20.118                   20.201                   20.209                   20.214                   20.216
12.000                   1.5000                   1.0000                   1.1000                   10000                    1000.0                   25.000                   307.62                   406.01                   749.52                   806.01                   836.93                   842.81                   307.76                   407.10                   755.77                   813.33                   844.55                   850.54                   244.75                   327.09                   611.41                   649.68                   671.27                   675.85                   41.420                   46.450                   58.771                   59.956                   60.680                   60.920                   21.545                   21.984                   23.111                   23.225                   23.295                   23.318                   20.372                   20.477                   20.753                   20.780                   20.798                   20.804                   20.174                   20.222                   20.347                   20.359                   20.367                   20.370                   20.133                   20.170                   20.262                   20.272                   20.277                   20.279                   20.126                   20.160                   20.247                   20.255                   20.261                   20.263                   20.124                   20.157                   20.240                   20.248                   20.253                   20.255
12.000                   1.5000                   1.0000                   1.1000                   10000                    1000.0                   30.000                   384.93                   487.83                   876.88                   939.49                   969.65                   975.04                   385.28                   489.29                   888.26                   951.99                   982.42                   987.80                   309.45                   397.20                   692.19                   732.07                   754.73                   759.43                   52.111                   57.834                   71.346                   72.597                   73.359                   73.610                   22.264                   22.743                   23.928                   24.044                   24.115                   24.139                   20.512                   20.624                   20.909                   20.938                   20.955                   20.961                   20.233                   20.283                   20.410                   20.422                   20.430                   20.433                   20.175                   20.213                   20.306                   20.315                   20.321                   20.323                   20.165                   20.200                   20.287                   20.296                   20.301                   20.303                   20.162                   20.195                   20.279                   20.287                   20.292                   20.294
12.000                   1.5000                   1.0000                   1.1000                   10000                    1000.0                   35.000                   455.45                   561.39                   1055.6                   1104.5                   1117.3                   1118.5                   455.94                   562.77                   1028.0                   1077.1                   1091.2                   1092.7                   369.72                   458.30                   737.11                   773.11                   793.32                   797.39                   64.360                   70.302                   83.288                   84.404                   85.075                   85.295                   23.096                   23.580                   24.695                   24.797                   24.858                   24.879                   20.660                   20.773                   21.040                   21.065                   21.080                   21.085                   20.293                   20.343                   20.465                   20.477                   20.484                   20.487                   20.218                   20.255                   20.347                   20.356                   20.362                   20.364                   20.205                   20.240                   20.326                   20.334                   20.339                   20.341                   20.200                   20.234                   20.317                   20.325                   20.330                   20.332
12.000                   1.5000                   1.0000                   1.1000                   10000                    1000.0                   40.000                   519.54                   625.55                   1110.1                   1139.4                   1145.6                   1145.8                   520.14                   626.45                   1084.7                   1115.6                   1122.6                   1122.9                   423.83                   509.63                   768.01                   801.16                   819.50                   823.14                   77.309                   83.073                   95.237                   96.274                   96.899                   97.104                   24.013                   24.474                   25.509                   25.602                   25.659                   25.678                   20.810                   20.917                   21.166                   21.189                   21.203                   21.208                   20.353                   20.402                   20.519                   20.530                   20.537                   20.540                   20.260                   20.297                   20.388                   20.396                   20.402                   20.404                   20.244                   20.279                   20.364                   20.372                   20.378                   20.379                   20.239                   20.272                   20.355                   20.363                   20.368                   20.370
12.000                   1.5000                   1.0000                   1.1000                   10000                    1000.0                   45.000                   575.97                   678.19                   1101.5                   1120.2                   1124.1                   1124.0                   576.61                   678.58                   1085.4                   1105.8                   1110.4                   1110.5                   470.74                   552.31                   798.85                   831.09                   848.57                   852.01                   90.517                   96.027                   107.76                   108.78                   109.40                   109.60                   25.029                   25.468                   26.459                   26.550                   26.606                   26.625                   20.961                   21.063                   21.301                   21.323                   21.337                   21.342                   20.412                   20.460                   20.575                   20.586                   20.593                   20.595                   20.303                   20.339                   20.428                   20.437                   20.442                   20.444                   20.284                   20.318                   20.403                   20.411                   20.416                   20.418                   20.278                   20.311                   20.393                   20.401                   20.406                   20.408
12.000                   1.5000                   1.0000                   1.1000                   10000                    1000.0                   50.000                   622.51                   718.84                   1099.2                   1113.9                   1116.7                   1116.5                   623.14                   719.09                   1087.2                   1103.1                   1106.5                   1106.4                   510.29                   587.15                   823.29                   853.04                   869.12                   872.28                   103.67                   108.96                   120.28                   121.26                   121.86                   122.06                   26.184                   26.603                   27.556                   27.643                   27.697                   27.715                   21.115                   21.212                   21.441                   21.463                   21.476                   21.481                   20.471                   20.518                   20.630                   20.641                   20.648                   20.650                   20.344                   20.380                   20.469                   20.478                   20.483                   20.485                   20.323                   20.357                   20.441                   20.449                   20.454                   20.456                   20.316                   20.349                   20.431                   20.439                   20.444                   20.446
12.000                   1.5000                   1.0000                   1.1000                   10000                    1000.0                   55.000                   661.15                   754.31                   1093.3                   1105.4                   1107.5                   1107.1                   661.76                   754.37                   1085.3                   1098.1                   1100.5                   1100.3                   544.69                   616.78                   840.95                   867.97                   882.63                   885.50                   116.59                   121.66                   132.55                   133.49                   134.07                   134.25                   27.471                   27.873                   28.787                   28.871                   28.922                   28.939                   21.274                   21.367                   21.588                   21.608                   21.621                   21.625                   20.530                   20.575                   20.685                   20.696                   20.703                   20.705                   20.386                   20.421                   20.509                   20.518                   20.523                   20.525                   20.362                   20.396                   20.479                   20.488                   20.493                   20.494                   20.354                   20.387                   20.469                   20.477                   20.482                   20.483
12.000                   1.5000                   1.0000                   1.1000                   10000                    1000.0                   60.000                   693.18                   788.62                   1089.9                   1099.8                   1101.3                   1100.9                   693.70                   788.71                   1085.3                   1095.5                   1097.2                   1096.9                   575.16                   642.82                   855.34                   879.96                   893.36                   895.99                   129.25                   134.13                   144.63                   145.55                   146.10                   146.28                   28.876                   29.263                   30.143                   30.224                   30.274                   30.290                   21.438                   21.528                   21.741                   21.762                   21.774                   21.778                   20.589                   20.633                   20.741                   20.752                   20.758                   20.761                   20.427                   20.462                   20.550                   20.558                   20.563                   20.565                   20.401                   20.434                   20.518                   20.526                   20.531                   20.532                   20.392                   20.425                   20.506                   20.514                   20.519                   20.521
12.000                   1.5000                   1.0000                   1.1000                   10000                    1000.0                   65.000                   719.80                   822.43                   1090.4                   1098.5                   1099.5                   1099.0                   720.26                   822.75                   1088.3                   1096.5                   1097.6                   1097.1                   601.38                   665.28                   867.49                   890.16                   902.53                   904.95                   141.53                   146.23                   156.43                   157.33                   157.87                   158.05                   30.444                   30.818                   31.673                   31.752                   31.800                   31.816                   21.615                   21.702                   21.910                   21.930                   21.942                   21.946                   20.648                   20.692                   20.798                   20.809                   20.815                   20.817                   20.468                   20.503                   20.590                   20.599                   20.604                   20.606                   20.440                   20.473                   20.556                   20.564                   20.569                   20.571                   20.431                   20.463                   20.544                   20.552                   20.557                   20.559
12.000                   1.5000                   1.0000                   1.1000                   10000                    1000.0                   70.000                   743.16                   854.98                   1095.2                   1101.8                   1102.4                   1101.8                   743.82                   855.53                   1093.9                   1100.6                   1101.2                   1100.6                   621.93                   683.23                   877.87                   899.01                   910.51                   912.76                   153.11                   157.70                   167.70                   168.59                   169.13                   169.30                   32.284                   32.649                   33.488                   33.566                   33.614                   33.629                   21.817                   21.903                   22.107                   22.126                   22.138                   22.142                   20.708                   20.752                   20.857                   20.868                   20.874                   20.876                   20.510                   20.544                   20.631                   20.639                   20.644                   20.646                   20.478                   20.512                   20.594                   20.602                   20.607                   20.609                   20.469                   20.501                   20.582                   20.590                   20.595                   20.596
12.000                   1.5000                   1.0000                   1.1000                   10000                    1000.0                   75.000                   766.52                   887.54                   1100.0                   1105.2                   1105.2                   1104.5                   767.37                   888.31                   1099.6                   1104.8                   1104.8                   1104.1                   642.48                   701.18                   888.26                   907.85                   918.50                   920.58                   164.70                   169.16                   178.97                   179.85                   180.38                   180.55                   34.123                   34.480                   35.303                   35.380                   35.427                   35.443                   22.019                   22.103                   22.304                   22.323                   22.335                   22.339                   20.769                   20.812                   20.917                   20.927                   20.933                   20.935                   20.551                   20.585                   20.671                   20.680                   20.685                   20.687                   20.517                   20.550                   20.632                   20.641                   20.646                   20.647                   20.507                   20.539                   20.620                   20.628                   20.632                   20.634