% Model:              batchmodel_COIL_N_12_COIL_kr_2.25_COIL_kh_2_COIL_kturn_1.4_FUNZ_freq_10000_FUNZ_I_eff_2500.mph
% Version:            COMSOL 5.6.0.280
% Date:               Feb 1 2022, 20:38
% Table:              Tabella 1 - GRIGLIA_T
% COIL_N                 COIL_kr                  COIL_kh                  COIL_kturn               FUNZ_freq                FUNZ_I_eff               Time (s)                 Temperatura (degC), Punto: (0, 0)Temperatura (degC), Punto: (15, 0)Temperatura (degC), Punto: (28.051, 0)Temperatura (degC), Punto: (29.025, 0)Temperatura (degC), Punto: (29.61, 0)Temperatura (degC), Punto: (29.805, 0)Temperatura (degC), Punto: (0, 62.5)Temperatura (degC), Punto: (15, 62.5)Temperatura (degC), Punto: (28.051, 62.5)Temperatura (degC), Punto: (29.025, 62.5)Temperatura (degC), Punto: (29.61, 62.5)Temperatura (degC), Punto: (29.805, 62.5)Temperatura (degC), Punto: (0, 125)Temperatura (degC), Punto: (15, 125)Temperatura (degC), Punto: (28.051, 125)Temperatura (degC), Punto: (29.025, 125)Temperatura (degC), Punto: (29.61, 125)Temperatura (degC), Punto: (29.805, 125)Temperatura (degC), Punto: (0, 187.5)Temperatura (degC), Punto: (15, 187.5)Temperatura (degC), Punto: (28.051, 187.5)Temperatura (degC), Punto: (29.025, 187.5)Temperatura (degC), Punto: (29.61, 187.5)Temperatura (degC), Punto: (29.805, 187.5)Temperatura (degC), Punto: (0, 250)Temperatura (degC), Punto: (15, 250)Temperatura (degC), Punto: (28.051, 250)Temperatura (degC), Punto: (29.025, 250)Temperatura (degC), Punto: (29.61, 250)Temperatura (degC), Punto: (29.805, 250)Temperatura (degC), Punto: (0, 312.5)Temperatura (degC), Punto: (15, 312.5)Temperatura (degC), Punto: (28.051, 312.5)Temperatura (degC), Punto: (29.025, 312.5)Temperatura (degC), Punto: (29.61, 312.5)Temperatura (degC), Punto: (29.805, 312.5)Temperatura (degC), Punto: (0, 375)Temperatura (degC), Punto: (15, 375)Temperatura (degC), Punto: (28.051, 375)Temperatura (degC), Punto: (29.025, 375)Temperatura (degC), Punto: (29.61, 375)Temperatura (degC), Punto: (29.805, 375)Temperatura (degC), Punto: (0, 437.5)Temperatura (degC), Punto: (15, 437.5)Temperatura (degC), Punto: (28.051, 437.5)Temperatura (degC), Punto: (29.025, 437.5)Temperatura (degC), Punto: (29.61, 437.5)Temperatura (degC), Punto: (29.805, 437.5)Temperatura (degC), Punto: (0, 468.75)Temperatura (degC), Punto: (15, 468.75)Temperatura (degC), Punto: (28.051, 468.75)Temperatura (degC), Punto: (29.025, 468.75)Temperatura (degC), Punto: (29.61, 468.75)Temperatura (degC), Punto: (29.805, 468.75)Temperatura (degC), Punto: (0, 492.19)Temperatura (degC), Punto: (15, 492.19)Temperatura (degC), Punto: (28.051, 492.19)Temperatura (degC), Punto: (29.025, 492.19)Temperatura (degC), Punto: (29.61, 492.19)Temperatura (degC), Punto: (29.805, 492.19)
12.000                   2.2500                   2.0000                   1.4000                   10000                    2500.0                   0.0000                   20.000                   20.000                   20.000                   20.000                   20.102                   20.298                   20.000                   20.000                   20.000                   20.000                   20.103                   20.299                   20.000                   20.000                   20.000                   20.000                   20.103                   20.300                   20.000                   20.000                   20.000                   20.000                   20.104                   20.301                   20.000                   20.000                   20.000                   20.000                   20.105                   20.302                   20.000                   20.000                   20.000                   20.000                   20.086                   20.265                   20.000                   20.000                   20.000                   20.000                   20.004                   20.042                   20.000                   20.000                   20.000                   20.000                   20.000                   20.005                   20.000                   20.000                   20.000                   20.000                   20.000                   20.002                   20.000                   20.000                   20.000                   20.000                   20.000                   20.001
12.000                   2.2500                   2.0000                   1.4000                   10000                    2500.0                   5.0000                   27.491                   55.625                   230.03                   255.24                   270.93                   274.90                   27.435                   55.713                   230.64                   256.04                   271.82                   275.74                   27.461                   55.870                   232.79                   258.75                   274.94                   278.93                   27.471                   55.980                   234.11                   260.30                   276.58                   280.57                   27.499                   56.144                   235.80                   261.81                   277.50                   281.64                   26.461                   51.437                   206.94                   229.20                   243.16                   246.78                   21.216                   25.635                   50.947                   54.267                   56.358                   57.036                   20.179                   20.836                   24.553                   25.036                   25.342                   25.447                   20.074                   20.343                   21.864                   22.062                   22.186                   22.228                   20.048                   20.192                   20.909                   20.997                   21.052                   21.070
12.000                   2.2500                   2.0000                   1.4000                   10000                    2500.0                   10.000                   77.822                   144.87                   401.27                   436.32                   456.98                   461.61                   77.713                   144.75                   400.13                   434.87                   455.32                   459.93                   77.983                   145.58                   405.34                   440.96                   462.04                   466.73                   78.006                   145.75                   406.36                   442.14                   463.30                   467.99                   78.208                   146.25                   408.14                   444.21                   465.00                   469.67                   69.502                   127.69                   341.77                   369.59                   386.42                   390.36                   30.199                   41.145                   75.882                   79.662                   82.009                   82.761                   21.475                   23.061                   28.067                   28.610                   28.948                   29.061                   20.596                   21.239                   23.266                   23.485                   23.621                   23.667                   20.347                   20.683                   21.635                   21.730                   21.789                   21.809
12.000                   2.2500                   2.0000                   1.4000                   10000                    2500.0                   15.000                   157.90                   247.82                   573.08                   618.58                   644.73                   650.15                   157.75                   247.66                   572.61                   618.29                   644.41                   649.78                   158.29                   248.74                   575.16                   620.91                   646.56                   651.92                   158.27                   248.80                   575.60                   621.32                   646.93                   652.27                   158.46                   248.94                   571.95                   616.22                   642.18                   647.41                   137.25                   213.62                   474.49                   508.77                   528.67                   533.15                   46.451                   61.365                   101.86                   106.03                   108.61                   109.42                   23.769                   25.857                   31.380                   31.936                   32.279                   32.394                   21.506                   22.340                   24.547                   24.769                   24.905                   24.951                   20.878                   21.320                   22.384                   22.483                   22.543                   22.564
12.000                   2.2500                   2.0000                   1.4000                   10000                    2500.0                   20.000                   245.19                   349.03                   716.79                   771.40                   801.92                   807.85                   245.15                   349.17                   717.95                   773.34                   803.66                   809.49                   245.86                   350.22                   718.16                   772.94                   802.04                   807.88                   245.76                   350.16                   718.29                   773.04                   802.09                   807.81                   245.59                   349.25                   704.25                   753.01                   780.82                   786.24                   211.28                   298.85                   591.33                   629.14                   649.91                   654.48                   66.565                   83.976                   128.74                   133.28                   136.06                   136.94                   26.561                   28.885                   34.486                   35.016                   35.341                   35.450                   22.597                   23.509                   25.727                   25.940                   26.072                   26.116                   21.539                   22.040                   23.161                   23.261                   23.322                   23.343
12.000                   2.2500                   2.0000                   1.4000                   10000                    2500.0                   25.000                   333.01                   444.30                   860.64                   930.22                   964.67                   970.63                   333.24                   444.86                   860.23                   929.30                   962.89                   968.78                   334.01                   445.75                   858.74                   926.95                   958.86                   964.64                   333.88                   445.67                   859.01                   927.17                   959.24                   964.96                   332.99                   443.06                   827.31                   885.02                   915.15                   920.76                   286.54                   380.68                   693.05                   734.48                   756.42                   761.13                   89.845                   108.88                   157.46                   162.44                   165.55                   166.50                   29.841                   32.304                   37.954                   38.462                   38.772                   38.875                   23.855                   24.804                   27.056                   27.269                   27.400                   27.444                   22.315                   22.840                   23.990                   24.092                   24.153                   24.174
12.000                   2.2500                   2.0000                   1.4000                   10000                    2500.0                   30.000                   416.22                   530.77                   1070.6                   1122.9                   1135.8                   1136.9                   416.79                   531.21                   988.76                   1039.7                   1057.2                   1059.6                   417.52                   531.52                   939.88                   983.83                   1003.9                   1007.4                   417.42                   531.68                   971.65                   1021.8                   1041.4                   1044.3                   415.58                   527.38                   939.24                   990.31                   1013.7                   1017.7                   359.21                   456.70                   784.07                   834.61                   861.47                   866.61                   115.40                   135.70                   186.86                   191.89                   194.97                   195.92                   33.574                   36.190                   42.476                   43.076                   43.443                   43.566                   25.259                   26.249                   28.680                   28.915                   29.059                   29.107                   23.186                   23.723                   24.889                   24.989                   25.050                   25.070
12.000                   2.2500                   2.0000                   1.4000                   10000                    2500.0                   35.000                   488.61                   603.75                   1105.8                   1129.6                   1134.9                   1134.9                   489.24                   602.37                   1025.1                   1056.7                   1066.4                   1067.4                   489.70                   600.29                   943.13                   971.17                   984.49                   986.88                   489.76                   601.92                   1006.5                   1038.6                   1049.4                   1050.8                   486.98                   595.58                   953.53                   988.46                   1005.1                   1008.0                   424.43                   521.83                   852.89                   899.95                   923.89                   928.32                   142.29                   163.31                   215.29                   220.37                   223.49                   224.44                   37.726                   40.372                   46.616                   47.207                   47.569                   47.690                   26.839                   27.846                   30.250                   30.478                   30.618                   30.665                   24.161                   24.697                   25.841                   25.939                   25.998                   26.018
12.000                   2.2500                   2.0000                   1.4000                   10000                    2500.0                   40.000                   552.66                   663.31                   1098.8                   1118.6                   1122.7                   1122.6                   553.15                   660.52                   1048.1                   1072.2                   1079.1                   1079.6                   553.25                   656.63                   964.23                   985.90                   996.03                   997.82                   553.55                   659.75                   1030.3                   1054.5                   1062.1                   1062.8                   549.95                   651.43                   971.44                   998.60                   1011.3                   1013.6                   482.89                   577.93                   896.84                   936.79                   956.84                   960.51                   169.35                   190.75                   243.69                   248.91                   252.11                   253.07                   42.088                   44.712                   50.913                   51.503                   51.864                   51.985                   28.540                   29.545                   31.928                   32.155                   32.294                   32.340                   25.213                   25.745                   26.873                   26.969                   27.028                   27.047
12.000                   2.2500                   2.0000                   1.4000                   10000                    2500.0                   45.000                   607.03                   709.70                   1099.2                   1114.2                   1117.1                   1116.8                   607.30                   706.41                   1065.7                   1084.6                   1089.3                   1089.5                   607.14                   701.79                   992.84                   1010.5                   1017.8                   1018.9                   607.70                   705.85                   1051.1                   1070.2                   1075.5                   1075.8                   603.58                   696.37                   992.90                   1013.9                   1022.9                   1024.3                   534.66                   625.13                   931.14                   965.90                   983.34                   986.50                   196.02                   217.68                   271.71                   277.07                   280.36                   281.33                   46.676                   49.281                   55.468                   56.058                   56.420                   56.541                   30.367                   31.366                   33.734                   33.959                   34.097                   34.143                   26.353                   26.878                   27.994                   28.089                   28.147                   28.166
12.000                   2.2500                   2.0000                   1.4000                   10000                    2500.0                   50.000                   649.13                   745.82                   1092.8                   1105.3                   1107.5                   1107.2                   649.23                   742.42                   1071.5                   1086.4                   1089.8                   1089.7                   649.01                   737.92                   1025.8                   1041.2                   1046.3                   1046.8                   649.72                   742.38                   1063.2                   1078.1                   1081.7                   1081.7                   645.54                   732.02                   1019.9                   1037.4                   1043.6                   1044.3                   578.18                   664.00                   957.14                   986.20                   1000.4                   1003.0                   221.63                   243.50                   298.19                   303.62                   306.95                   307.93                   51.611                   54.206                   60.377                   60.966                   61.327                   61.447                   32.366                   33.358                   35.705                   35.928                   36.065                   36.110                   27.617                   28.137                   29.238                   29.332                   29.389                   29.408
12.000                   2.2500                   2.0000                   1.4000                   10000                    2500.0                   55.000                   683.94                   779.77                   1087.7                   1098.2                   1099.9                   1099.6                   683.92                   776.50                   1075.4                   1087.1                   1089.5                   1089.3                   683.71                   772.70                   1053.0                   1065.9                   1069.2                   1069.2                   684.47                   777.16                   1072.5                   1084.1                   1086.4                   1086.2                   680.54                   766.19                   1045.0                   1059.3                   1063.3                   1063.5                   616.63                   698.29                   985.06                   1009.6                   1020.6                   1022.4                   246.42                   268.44                   323.62                   329.10                   332.46                   333.44                   56.779                   59.369                   65.532                   66.120                   66.481                   66.601                   34.486                   35.470                   37.800                   38.021                   38.156                   38.202                   28.970                   29.484                   30.572                   30.664                   30.721                   30.739
12.000                   2.2500                   2.0000                   1.4000                   10000                    2500.0                   60.000                   712.03                   813.00                   1086.0                   1094.7                   1095.9                   1095.5                   711.91                   810.17                   1079.7                   1089.0                   1090.6                   1090.2                   711.76                   807.51                   1072.1                   1082.2                   1084.0                   1083.7                   712.50                   811.60                   1080.4                   1089.4                   1090.9                   1090.5                   709.01                   800.59                   1065.8                   1076.8                   1079.1                   1078.9                   650.41                   728.99                   1016.5                   1037.7                   1045.6                   1046.6                   270.36                   292.47                   348.05                   353.58                   356.97                   357.96                   62.173                   64.762                   70.932                   71.521                   71.882                   72.003                   36.727                   37.706                   40.024                   40.244                   40.379                   40.424                   30.413                   30.921                   31.998                   32.090                   32.146                   32.164
12.000                   2.2500                   2.0000                   1.4000                   10000                    2500.0                   65.000                   733.50                   845.52                   1088.3                   1095.4                   1096.2                   1095.7                   733.23                   843.62                   1085.6                   1092.9                   1093.8                   1093.3                   733.16                   842.29                   1084.1                   1091.7                   1092.6                   1092.1                   733.86                   845.59                   1087.5                   1094.6                   1095.4                   1094.9                   730.71                   835.81                   1080.3                   1088.5                   1089.6                   1089.2                   679.53                   757.44                   1049.0                   1067.3                   1072.6                   1072.9                   293.32                   315.49                   371.45                   377.04                   380.47                   381.45                   67.804                   70.398                   76.591                   77.183                   77.547                   77.668                   39.107                   40.083                   42.396                   42.616                   42.751                   42.796                   31.959                   32.463                   33.532                   33.623                   33.678                   33.696
12.000                   2.2500                   2.0000                   1.4000                   10000                    2500.0                   70.000                   761.67                   875.97                   1093.5                   1099.3                   1099.6                   1099.0                   761.68                   874.77                   1091.8                   1097.8                   1098.1                   1097.6                   761.81                   874.11                   1091.4                   1097.5                   1097.9                   1097.3                   762.63                   876.77                   1093.8                   1099.6                   1099.8                   1099.2                   758.77                   868.47                   1088.7                   1095.3                   1095.8                   1095.3                   700.23                   786.19                   1065.7                   1080.8                   1084.6                   1084.6                   313.97                   336.17                   392.36                   397.98                   401.43                   402.41                   73.909                   76.515                   82.743                   83.340                   83.706                   83.828                   41.849                   42.826                   45.142                   45.362                   45.497                   45.543                   33.790                   34.292                   35.355                   35.446                   35.501                   35.519
12.000                   2.2500                   2.0000                   1.4000                   10000                    2500.0                   75.000                   790.41                   906.25                   1098.9                   1103.4                   1103.3                   1102.6                   790.72                   905.74                   1098.1                   1102.7                   1102.6                   1101.9                   791.05                   905.68                   1098.4                   1103.0                   1102.9                   1102.2                   792.02                   907.72                   1100.0                   1104.4                   1104.3                   1103.6                   787.36                   900.91                   1096.7                   1101.7                   1101.6                   1101.0                   720.24                   814.96                   1080.9                   1093.0                   1095.4                   1095.2                   334.43                   356.65                   413.07                   418.72                   422.17                   423.15                   80.053                   82.671                   88.937                   89.537                   89.906                   90.029                   44.622                   45.599                   47.919                   48.140                   48.275                   48.320                   35.645                   36.145                   37.202                   37.293                   37.347                   37.365