% Model:              batchmodel_COIL_N_12_COIL_kr_2.25_COIL_kh_1_COIL_kturn_1.1_FUNZ_freq_2000_FUNZ_I_eff_2500.mph
% Version:            COMSOL 5.6.0.280
% Date:               Feb 1 2022, 17:29
% Table:              Tabella 1 - GRIGLIA_T
% COIL_N                 COIL_kr                  COIL_kh                  COIL_kturn               FUNZ_freq                FUNZ_I_eff               Time (s)                 Temperatura (degC), Punto: (0, 0)Temperatura (degC), Punto: (15, 0)Temperatura (degC), Punto: (25.641, 0)Temperatura (degC), Punto: (27.821, 0)Temperatura (degC), Punto: (29.128, 0)Temperatura (degC), Punto: (29.564, 0)Temperatura (degC), Punto: (0, 62.5)Temperatura (degC), Punto: (15, 62.5)Temperatura (degC), Punto: (25.641, 62.5)Temperatura (degC), Punto: (27.821, 62.5)Temperatura (degC), Punto: (29.128, 62.5)Temperatura (degC), Punto: (29.564, 62.5)Temperatura (degC), Punto: (0, 125)Temperatura (degC), Punto: (15, 125)Temperatura (degC), Punto: (25.641, 125)Temperatura (degC), Punto: (27.821, 125)Temperatura (degC), Punto: (29.128, 125)Temperatura (degC), Punto: (29.564, 125)Temperatura (degC), Punto: (0, 187.5)Temperatura (degC), Punto: (15, 187.5)Temperatura (degC), Punto: (25.641, 187.5)Temperatura (degC), Punto: (27.821, 187.5)Temperatura (degC), Punto: (29.128, 187.5)Temperatura (degC), Punto: (29.564, 187.5)Temperatura (degC), Punto: (0, 250)Temperatura (degC), Punto: (15, 250)Temperatura (degC), Punto: (25.641, 250)Temperatura (degC), Punto: (27.821, 250)Temperatura (degC), Punto: (29.128, 250)Temperatura (degC), Punto: (29.564, 250)Temperatura (degC), Punto: (0, 312.5)Temperatura (degC), Punto: (15, 312.5)Temperatura (degC), Punto: (25.641, 312.5)Temperatura (degC), Punto: (27.821, 312.5)Temperatura (degC), Punto: (29.128, 312.5)Temperatura (degC), Punto: (29.564, 312.5)Temperatura (degC), Punto: (0, 375)Temperatura (degC), Punto: (15, 375)Temperatura (degC), Punto: (25.641, 375)Temperatura (degC), Punto: (27.821, 375)Temperatura (degC), Punto: (29.128, 375)Temperatura (degC), Punto: (29.564, 375)Temperatura (degC), Punto: (0, 437.5)Temperatura (degC), Punto: (15, 437.5)Temperatura (degC), Punto: (25.641, 437.5)Temperatura (degC), Punto: (27.821, 437.5)Temperatura (degC), Punto: (29.128, 437.5)Temperatura (degC), Punto: (29.564, 437.5)Temperatura (degC), Punto: (0, 468.75)Temperatura (degC), Punto: (15, 468.75)Temperatura (degC), Punto: (25.641, 468.75)Temperatura (degC), Punto: (27.821, 468.75)Temperatura (degC), Punto: (29.128, 468.75)Temperatura (degC), Punto: (29.564, 468.75)Temperatura (degC), Punto: (0, 492.19)Temperatura (degC), Punto: (15, 492.19)Temperatura (degC), Punto: (25.641, 492.19)Temperatura (degC), Punto: (27.821, 492.19)Temperatura (degC), Punto: (29.128, 492.19)Temperatura (degC), Punto: (29.564, 492.19)
12.000                   2.2500                   1.0000                   1.1000                   2000.0                   2500.0                   0.0000                   20.000                   20.000                   20.000                   20.000                   20.090                   20.176                   20.000                   20.000                   20.000                   20.000                   20.090                   20.176                   20.000                   20.000                   20.000                   20.000                   20.062                   20.134                   20.000                   20.000                   20.000                   20.000                   20.003                   20.021                   20.000                   20.000                   20.000                   20.000                   20.000                   20.002                   20.000                   20.000                   20.000                   20.000                   20.000                   20.000                   20.000                   20.000                   20.000                   20.000                   20.000                   20.000                   20.000                   20.000                   20.000                   20.000                   20.000                   20.000                   20.000                   20.000                   20.000                   20.000                   20.000                   20.000                   20.000                   20.000                   20.000                   20.000                   20.000                   20.000
12.000                   2.2500                   1.0000                   1.1000                   2000.0                   2500.0                   5.0000                   31.821                   74.470                   255.50                   331.07                   376.35                   385.83                   31.648                   73.755                   253.08                   327.90                   372.80                   382.23                   28.161                   57.948                   184.31                   235.43                   268.12                   275.53                   21.197                   25.583                   44.614                   51.952                   57.047                   58.656                   20.175                   20.898                   24.182                   25.438                   26.355                   26.673                   19.988                   20.043                   20.812                   21.131                   21.359                   21.444                   20.029                   20.151                   20.616                   20.709                   20.772                   20.799                   20.023                   20.110                   20.360                   20.400                   20.425                   20.436                   20.022                   20.092                   20.245                   20.247                   20.248                   20.254                   20.020                   20.086                   20.224                   20.217                   20.215                   20.218
12.000                   2.2500                   1.0000                   1.1000                   2000.0                   2500.0                   10.000                   98.167                   195.59                   471.17                   574.16                   627.08                   637.14                   97.269                   193.83                   466.99                   569.01                   621.54                   631.55                   75.768                   147.06                   340.58                   409.03                   448.69                   456.82                   29.761                   42.355                   74.133                   83.598                   89.682                   91.458                   21.574                   23.808                   29.657                   31.328                   32.375                   32.726                   20.287                   20.929                   22.904                   23.432                   23.731                   23.830                   20.283                   20.738                   22.467                   22.882                   22.992                   23.023                   20.132                   20.268                   20.565                   20.659                   20.709                   20.723                   20.106                   20.188                   20.318                   20.361                   20.390                   20.399                   20.094                   20.162                   20.258                   20.289                   20.309                   20.315
12.000                   2.2500                   1.0000                   1.1000                   2000.0                   2500.0                   15.000                   203.80                   328.27                   660.13                   789.00                   857.67                   869.70                   201.89                   325.34                   653.41                   778.90                   847.23                   859.29                   155.90                   250.38                   488.38                   572.89                   618.60                   627.54                   47.409                   66.355                   106.28                   117.51                   124.37                   126.40                   24.684                   28.311                   35.997                   37.953                   39.085                   39.471                   21.206                   22.415                   25.154                   25.735                   26.047                   26.155                   20.864                   21.781                   24.936                   25.794                   26.211                   26.340                   20.293                   20.458                   20.820                   20.901                   20.949                   20.965                   20.203                   20.273                   20.438                   20.482                   20.508                   20.517                   20.173                   20.224                   20.343                   20.373                   20.390                   20.396
12.000                   2.2500                   1.0000                   1.1000                   2000.0                   2500.0                   20.000                   317.41                   451.92                   838.63                   991.46                   1056.2                   1066.3                   314.46                   447.51                   820.63                   967.46                   1032.8                   1043.3                   247.27                   351.59                   610.84                   696.70                   742.71                   751.93                   72.496                   95.087                   139.86                   152.06                   158.88                   160.90                   29.509                   34.180                   43.060                   44.956                   46.001                   46.353                   22.754                   24.408                   28.274                   29.171                   29.512                   29.589                   21.880                   23.409                   27.914                   29.142                   30.074                   30.387                   20.480                   20.646                   20.853                   20.866                   20.902                   20.919                   20.298                   20.382                   20.553                   20.594                   20.622                   20.632                   20.243                   20.301                   20.419                   20.444                   20.462                   20.468
12.000                   2.2500                   1.0000                   1.1000                   2000.0                   2500.0                   25.000                   419.45                   562.55                   1052.2                   1152.2                   1172.3                   1173.0                   415.65                   556.29                   1022.6                   1130.5                   1154.2                   1155.6                   332.82                   440.59                   688.26                   768.46                   811.39                   819.21                   101.49                   125.42                   170.38                   182.08                   189.44                   191.47                   35.416                   40.193                   48.082                   49.908                   51.027                   51.392                   24.584                   26.154                   28.626                   29.133                   29.438                   29.537                   23.127                   24.506                   26.435                   26.688                   26.765                   26.778                   20.663                   20.796                   21.007                   21.065                   21.101                   21.114                   20.405                   20.495                   20.655                   20.696                   20.721                   20.730                   20.321                   20.384                   20.496                   20.523                   20.541                   20.546
12.000                   2.2500                   1.0000                   1.1000                   2000.0                   2500.0                   30.000                   510.34                   659.26                   1129.6                   1176.5                   1183.6                   1182.8                   506.25                   652.94                   1117.0                   1167.1                   1175.2                   1174.5                   409.54                   513.75                   743.41                   822.82                   863.39                   870.46                   131.53                   155.18                   198.81                   210.19                   217.32                   219.29                   41.367                   45.510                   52.370                   54.055                   55.108                   55.458                   26.269                   27.431                   29.170                   29.584                   29.850                   29.939                   24.033                   24.755                   25.435                   25.545                   25.621                   25.647                   20.832                   20.947                   21.160                   21.216                   21.253                   21.266                   20.516                   20.599                   20.749                   20.788                   20.812                   20.821                   20.406                   20.467                   20.574                   20.600                   20.617                   20.623
12.000                   2.2500                   1.0000                   1.1000                   2000.0                   2500.0                   35.000                   590.62                   740.43                   1148.6                   1174.6                   1176.6                   1175.1                   587.30                   736.10                   1144.2                   1171.1                   1173.3                   1171.9                   475.33                   573.01                   791.55                   869.40                   906.81                   913.09                   160.89                   183.81                   226.69                   238.10                   245.28                   247.24                   46.897                   50.519                   56.954                   58.609                   59.655                   60.004                   27.685                   28.595                   30.182                   30.593                   30.852                   30.940                   24.460                   24.804                   25.298                   25.424                   25.505                   25.533                   20.997                   21.109                   21.321                   21.378                   21.414                   21.427                   20.620                   20.698                   20.842                   20.880                   20.904                   20.912                   20.492                   20.550                   20.654                   20.680                   20.697                   20.703
12.000                   2.2500                   1.0000                   1.1000                   2000.0                   2500.0                   40.000                   657.69                   818.83                   1156.5                   1171.6                   1170.9                   1169.0                   655.85                   817.99                   1156.2                   1171.1                   1170.4                   1168.5                   531.85                   622.40                   833.75                   905.59                   938.87                   944.24                   188.96                   211.35                   253.99                   265.47                   272.70                   274.66                   52.297                   55.689                   61.995                   63.655                   64.708                   65.060                   28.981                   29.790                   31.325                   31.733                   31.993                   32.081                   24.705                   24.915                   25.364                   25.492                   25.573                   25.601                   21.168                   21.278                   21.490                   21.547                   21.583                   21.595                   20.722                   20.797                   20.937                   20.975                   20.999                   21.007                   20.578                   20.634                   20.737                   20.763                   20.779                   20.785
12.000                   2.2500                   1.0000                   1.1000                   2000.0                   2500.0                   45.000                   710.21                   896.27                   1162.0                   1171.1                   1168.9                   1166.8                   710.07                   899.96                   1163.9                   1172.4                   1170.1                   1168.0                   580.42                   664.29                   870.58                   933.99                   962.56                   967.04                   215.72                   237.83                   280.47                   292.02                   299.30                   301.25                   57.783                   61.132                   67.455                   69.132                   70.198                   70.555                   30.237                   31.023                   32.542                   32.950                   33.210                   33.299                   24.901                   25.093                   25.528                   25.653                   25.733                   25.761                   21.344                   21.454                   21.664                   21.720                   21.756                   21.768                   20.825                   20.898                   21.037                   21.074                   21.098                   21.106                   20.665                   20.720                   20.822                   20.848                   20.864                   20.870
12.000                   2.2500                   1.0000                   1.1000                   2000.0                   2500.0                   50.000                   750.16                   963.82                   1167.0                   1172.6                   1169.6                   1167.4                   751.92                   971.39                   1169.7                   1174.8                   1171.7                   1169.5                   621.84                   700.49                   905.13                   960.07                   984.21                   987.81                   241.27                   263.28                   305.98                   317.60                   324.91                   326.84                   63.478                   66.871                   73.289                   74.992                   76.074                   76.436                   31.494                   32.289                   33.821                   34.232                   34.494                   34.584                   25.102                   25.317                   25.768                   25.894                   25.974                   26.002                   21.523                   21.633                   21.842                   21.898                   21.934                   21.946                   20.929                   21.001                   21.140                   21.178                   21.202                   21.210                   20.753                   20.808                   20.909                   20.935                   20.951                   20.957
12.000                   2.2500                   1.0000                   1.1000                   2000.0                   2500.0                   55.000                   802.00                   1020.6                   1173.8                   1176.9                   1173.2                   1171.0                   808.62                   1029.8                   1177.0                   1179.7                   1175.8                   1173.5                   657.59                   733.50                   944.81                   993.28                   1012.8                   1015.4                   265.71                   287.66                   330.44                   342.12                   349.47                   351.38                   69.476                   72.930                   79.454                   81.184                   82.283                   82.650                   32.788                   33.596                   35.145                   35.560                   35.824                   35.915                   25.347                   25.579                   26.043                   26.169                   26.250                   26.278                   21.703                   21.813                   22.022                   22.078                   22.114                   22.126                   21.036                   21.109                   21.248                   21.285                   21.309                   21.317                   20.842                   20.897                   20.998                   21.024                   21.040                   21.046
12.000                   2.2500                   1.0000                   1.1000                   2000.0                   2500.0                   60.000                   870.96                   1067.9                   1182.6                   1183.9                   1179.8                   1177.4                   882.25                   1077.3                   1186.1                   1187.0                   1182.7                   1180.3                   688.27                   768.09                   989.54                   1031.6                   1045.7                   1047.1                   289.05                   310.97                   353.84                   365.57                   372.94                   374.84                   75.765                   79.284                   85.917                   87.674                   88.790                   89.162                   34.126                   34.948                   36.516                   36.936                   37.203                   37.294                   25.626                   25.872                   26.346                   26.474                   26.556                   26.584                   21.884                   21.994                   22.203                   22.259                   22.294                   22.307                   21.147                   21.219                   21.358                   21.396                   21.420                   21.428                   20.934                   20.989                   21.090                   21.116                   21.132                   21.137
12.000                   2.2500                   1.0000                   1.1000                   2000.0                   2500.0                   65.000                   952.35                   1107.1                   1193.8                   1193.9                   1189.3                   1186.8                   966.50                   1115.5                   1197.5                   1197.3                   1192.5                   1190.0                   714.67                   807.48                   1036.4                   1070.9                   1079.4                   1079.5                   311.33                   333.23                   376.15                   387.91                   395.28                   397.16                   82.334                   85.912                   92.645                   94.426                   95.558                   95.935                   35.516                   36.350                   37.938                   38.361                   38.631                   38.723                   25.939                   26.191                   26.672                   26.801                   26.883                   26.911                   22.064                   22.174                   22.383                   22.439                   22.475                   22.487                   21.261                   21.334                   21.473                   21.510                   21.534                   21.542                   21.028                   21.083                   21.184                   21.210                   21.226                   21.231
12.000                   2.2500                   1.0000                   1.1000                   2000.0                   2500.0                   70.000                   1029.2                   1140.5                   1208.0                   1207.0                   1202.0                   1199.4                   1043.1                   1147.9                   1211.9                   1210.6                   1205.5                   1202.9                   738.24                   854.11                   1078.2                   1103.1                   1107.5                   1106.7                   332.59                   354.46                   397.34                   409.09                   416.43                   418.29                   89.151                   92.777                   99.595                   101.40                   102.54                   102.93                   36.964                   37.809                   39.413                   39.841                   40.114                   40.206                   26.277                   26.532                   27.018                   27.147                   27.230                   27.258                   22.243                   22.352                   22.562                   22.618                   22.654                   22.666                   21.378                   21.451                   21.590                   21.627                   21.651                   21.659                   21.125                   21.180                   21.280                   21.306                   21.323                   21.328
12.000                   2.2500                   1.0000                   1.1000                   2000.0                   2500.0                   75.000                   1090.5                   1171.7                   1225.6                   1223.5                   1218.0                   1215.3                   1102.1                   1178.1                   1229.5                   1227.1                   1221.6                   1218.8                   766.12                   903.44                   1109.3                   1127.1                   1128.7                   1127.5                   352.88                   374.68                   417.40                   429.08                   436.35                   438.18                   96.163                   99.830                   106.72                   108.55                   109.71                   110.09                   38.475                   39.329                   40.948                   41.380                   41.654                   41.748                   26.636                   26.893                   27.381                   27.511                   27.594                   27.622                   22.421                   22.530                   22.740                   22.796                   22.832                   22.844                   21.498                   21.571                   21.710                   21.747                   21.771                   21.779                   21.225                   21.280                   21.380                   21.406                   21.422                   21.427