% Model:              batchmodel_COIL_N_12_COIL_kr_1.5_COIL_kh_1_COIL_kturn_1.7_FUNZ_freq_6000_FUNZ_I_eff_1000.mph
% Version:            COMSOL 5.6.0.280
% Date:               Feb 1 2022, 12:40
% Table:              Tabella 1 - GRIGLIA_T
% COIL_N                 COIL_kr                  COIL_kh                  COIL_kturn               FUNZ_freq                FUNZ_I_eff               Time (s)                 Temperatura (degC), Punto: (0, 0)Temperatura (degC), Punto: (15, 0)Temperatura (degC), Punto: (27.483, 0)Temperatura (degC), Punto: (28.742, 0)Temperatura (degC), Punto: (29.497, 0)Temperatura (degC), Punto: (29.748, 0)Temperatura (degC), Punto: (0, 62.5)Temperatura (degC), Punto: (15, 62.5)Temperatura (degC), Punto: (27.483, 62.5)Temperatura (degC), Punto: (28.742, 62.5)Temperatura (degC), Punto: (29.497, 62.5)Temperatura (degC), Punto: (29.748, 62.5)Temperatura (degC), Punto: (0, 125)Temperatura (degC), Punto: (15, 125)Temperatura (degC), Punto: (27.483, 125)Temperatura (degC), Punto: (28.742, 125)Temperatura (degC), Punto: (29.497, 125)Temperatura (degC), Punto: (29.748, 125)Temperatura (degC), Punto: (0, 187.5)Temperatura (degC), Punto: (15, 187.5)Temperatura (degC), Punto: (27.483, 187.5)Temperatura (degC), Punto: (28.742, 187.5)Temperatura (degC), Punto: (29.497, 187.5)Temperatura (degC), Punto: (29.748, 187.5)Temperatura (degC), Punto: (0, 250)Temperatura (degC), Punto: (15, 250)Temperatura (degC), Punto: (27.483, 250)Temperatura (degC), Punto: (28.742, 250)Temperatura (degC), Punto: (29.497, 250)Temperatura (degC), Punto: (29.748, 250)Temperatura (degC), Punto: (0, 312.5)Temperatura (degC), Punto: (15, 312.5)Temperatura (degC), Punto: (27.483, 312.5)Temperatura (degC), Punto: (28.742, 312.5)Temperatura (degC), Punto: (29.497, 312.5)Temperatura (degC), Punto: (29.748, 312.5)Temperatura (degC), Punto: (0, 375)Temperatura (degC), Punto: (15, 375)Temperatura (degC), Punto: (27.483, 375)Temperatura (degC), Punto: (28.742, 375)Temperatura (degC), Punto: (29.497, 375)Temperatura (degC), Punto: (29.748, 375)Temperatura (degC), Punto: (0, 437.5)Temperatura (degC), Punto: (15, 437.5)Temperatura (degC), Punto: (27.483, 437.5)Temperatura (degC), Punto: (28.742, 437.5)Temperatura (degC), Punto: (29.497, 437.5)Temperatura (degC), Punto: (29.748, 437.5)Temperatura (degC), Punto: (0, 468.75)Temperatura (degC), Punto: (15, 468.75)Temperatura (degC), Punto: (27.483, 468.75)Temperatura (degC), Punto: (28.742, 468.75)Temperatura (degC), Punto: (29.497, 468.75)Temperatura (degC), Punto: (29.748, 468.75)Temperatura (degC), Punto: (0, 492.19)Temperatura (degC), Punto: (15, 492.19)Temperatura (degC), Punto: (27.483, 492.19)Temperatura (degC), Punto: (28.742, 492.19)Temperatura (degC), Punto: (29.497, 492.19)Temperatura (degC), Punto: (29.748, 492.19)
12.000                   1.5000                   1.0000                   1.7000                   6000.0                   1000.0                   0.0000                   20.000                   20.000                   20.000                   20.000                   20.019                   20.092                   20.000                   20.000                   20.000                   20.000                   20.020                   20.094                   20.000                   20.000                   20.000                   20.000                   20.020                   20.096                   20.000                   20.000                   20.000                   20.000                   20.018                   20.089                   20.000                   20.000                   20.000                   20.000                   20.000                   20.002                   20.000                   20.000                   20.000                   20.000                   20.000                   20.000                   20.000                   20.000                   20.000                   20.000                   20.000                   20.000                   20.000                   20.000                   20.000                   20.000                   20.000                   20.000                   20.000                   20.000                   20.000                   20.000                   20.000                   20.000                   20.000                   20.000                   20.000                   20.000                   20.000                   20.000
12.000                   1.5000                   1.0000                   1.7000                   6000.0                   1000.0                   5.0000                   23.741                   34.591                   89.752                   99.914                   106.48                   108.41                   23.697                   34.476                   89.838                   100.10                   106.62                   108.56                   23.701                   34.544                   90.444                   100.86                   107.57                   109.55                   23.115                   32.571                   82.737                   92.250                   98.421                   100.28                   20.144                   20.567                   23.504                   24.199                   24.530                   24.649                   20.017                   20.069                   20.371                   20.432                   20.472                   20.486                   20.007                   20.028                   20.134                   20.154                   20.166                   20.171                   20.004                   20.017                   20.082                   20.094                   20.101                   20.104                   20.004                   20.016                   20.074                   20.084                   20.091                   20.093                   20.004                   20.015                   20.070                   20.080                   20.086                   20.089
12.000                   1.5000                   1.0000                   1.7000                   6000.0                   1000.0                   10.000                   42.386                   66.329                   142.14                   153.76                   161.11                   163.19                   42.326                   66.277                   142.43                   153.85                   160.92                   163.02                   42.248                   66.126                   142.12                   153.75                   161.26                   163.36                   38.426                   59.316                   130.45                   141.72                   148.26                   150.17                   21.334                   22.599                   26.739                   27.443                   27.733                   27.857                   20.128                   20.265                   20.730                   20.802                   20.847                   20.862                   20.044                   20.091                   20.237                   20.258                   20.271                   20.276                   20.026                   20.054                   20.140                   20.152                   20.160                   20.163                   20.024                   20.048                   20.125                   20.136                   20.143                   20.145                   20.023                   20.046                   20.118                   20.129                   20.135                   20.138
12.000                   1.5000                   1.0000                   1.7000                   6000.0                   1000.0                   15.000                   71.167                   103.58                   191.13                   203.83                   211.80                   214.00                   71.117                   103.51                   190.74                   202.94                   210.24                   212.37                   70.977                   103.34                   191.18                   203.84                   211.80                   213.97                   61.916                   90.397                   173.87                   186.49                   193.84                   195.87                   23.815                   26.132                   34.032                   35.637                   36.082                   36.180                   20.332                   20.533                   21.071                   21.146                   21.192                   21.207                   20.104                   20.167                   20.330                   20.353                   20.367                   20.371                   20.060                   20.097                   20.191                   20.204                   20.212                   20.215                   20.054                   20.086                   20.170                   20.182                   20.189                   20.191                   20.051                   20.083                   20.162                   20.172                   20.179                   20.181
12.000                   1.5000                   1.0000                   1.7000                   6000.0                   1000.0                   20.000                   107.93                   144.44                   239.14                   252.79                   261.31                   263.58                   107.85                   144.22                   238.21                   251.70                   259.88                   262.15                   107.77                   144.34                   239.81                   253.58                   261.98                   264.23                   91.882                   124.21                   215.11                   228.49                   236.20                   238.07                   28.062                   31.517                   43.507                   45.921                   46.679                   46.829                   20.669                   20.920                   21.509                   21.585                   21.633                   21.649                   20.182                   20.253                   20.423                   20.446                   20.460                   20.465                   20.103                   20.144                   20.240                   20.253                   20.261                   20.264                   20.092                   20.127                   20.213                   20.224                   20.231                   20.234                   20.088                   20.122                   20.202                   20.213                   20.219                   20.222
12.000                   1.5000                   1.0000                   1.7000                   6000.0                   1000.0                   25.000                   147.41                   186.62                   287.83                   302.49                   311.58                   313.94                   147.22                   186.19                   286.84                   301.60                   310.71                   313.10                   147.20                   186.51                   288.64                   303.44                   312.40                   314.76                   123.47                   157.91                   252.16                   265.91                   273.60                   275.28                   33.821                   37.975                   51.403                   53.878                   54.899                   55.135                   21.162                   21.446                   22.072                   22.150                   22.199                   22.215                   20.272                   20.346                   20.521                   20.544                   20.559                   20.564                   20.150                   20.192                   20.290                   20.303                   20.311                   20.314                   20.133                   20.169                   20.256                   20.267                   20.274                   20.277                   20.127                   20.162                   20.242                   20.253                   20.260                   20.262
12.000                   1.5000                   1.0000                   1.7000                   6000.0                   1000.0                   30.000                   187.36                   229.06                   337.07                   352.84                   362.55                   364.99                   187.05                   228.48                   336.06                   352.07                   362.01                   364.51                   187.06                   228.88                   337.87                   353.79                   363.38                   365.86                   155.34                   191.65                   289.35                   303.62                   311.60                   313.30                   39.997                   44.564                   58.111                   60.382                   61.484                   61.762                   21.717                   22.031                   22.696                   22.777                   22.828                   22.845                   20.367                   20.445                   20.625                   20.649                   20.664                   20.669                   20.199                   20.241                   20.340                   20.354                   20.362                   20.365                   20.174                   20.212                   20.299                   20.310                   20.317                   20.320                   20.167                   20.202                   20.283                   20.294                   20.300                   20.303
12.000                   1.5000                   1.0000                   1.7000                   6000.0                   1000.0                   35.000                   228.42                   272.13                   387.64                   404.72                   415.15                   417.70                   228.01                   271.49                   386.71                   403.89                   414.43                   417.02                   227.94                   271.74                   388.04                   405.27                   415.70                   418.30                   187.87                   225.47                   326.91                   342.00                   351.02                   353.22                   47.167                   51.468                   61.998                   63.432                   64.184                   64.396                   22.421                   22.753                   23.464                   23.553                   23.607                   23.626                   20.475                   20.554                   20.742                   20.768                   20.783                   20.789                   20.250                   20.292                   20.393                   20.407                   20.415                   20.418                   20.218                   20.255                   20.343                   20.354                   20.362                   20.364                   20.208                   20.243                   20.324                   20.335                   20.342                   20.344
12.000                   1.5000                   1.0000                   1.7000                   6000.0                   1000.0                   40.000                   268.74                   314.57                   437.53                   455.91                   467.04                   469.68                   268.27                   313.90                   436.65                   455.08                   466.26                   468.92                   268.02                   313.90                   437.55                   456.09                   467.30                   469.99                   220.20                   259.47                   366.31                   382.30                   392.11                   394.61                   55.410                   59.709                   69.387                   70.550                   71.135                   71.305                   23.361                   23.716                   24.477                   24.572                   24.630                   24.649                   20.605                   20.687                   20.883                   20.909                   20.926                   20.931                   20.303                   20.347                   20.449                   20.463                   20.471                   20.474                   20.263                   20.300                   20.388                   20.400                   20.407                   20.410                   20.250                   20.285                   20.367                   20.378                   20.384                   20.387
12.000                   1.5000                   1.0000                   1.7000                   6000.0                   1000.0                   45.000                   308.40                   356.42                   486.81                   506.47                   518.27                   521.01                   307.91                   355.75                   485.94                   505.70                   517.56                   520.29                   307.38                   355.42                   486.47                   506.31                   518.22                   520.99                   252.35                   293.63                   407.38                   424.36                   434.71                   437.34                   64.627                   69.163                   79.957                   81.360                   81.946                   82.094                   24.516                   24.898                   25.711                   25.812                   25.873                   25.894                   20.755                   20.841                   21.044                   21.071                   21.088                   21.094                   20.360                   20.404                   20.508                   20.522                   20.530                   20.533                   20.309                   20.346                   20.435                   20.447                   20.454                   20.457                   20.293                   20.328                   20.410                   20.421                   20.428                   20.430
12.000                   1.5000                   1.0000                   1.7000                   6000.0                   1000.0                   50.000                   348.06                   398.27                   536.09                   557.02                   569.51                   572.33                   347.55                   397.61                   535.24                   556.31                   568.86                   571.65                   346.73                   396.94                   535.38                   556.53                   569.15                   571.99                   284.51                   327.78                   448.45                   466.41                   477.30                   480.06                   73.844                   78.617                   90.526                   92.171                   92.756                   92.884                   25.670                   26.080                   26.946                   27.052                   27.117                   27.139                   20.905                   20.994                   21.205                   21.234                   21.251                   21.257                   20.417                   20.461                   20.567                   20.581                   20.589                   20.592                   20.355                   20.393                   20.482                   20.494                   20.501                   20.504                   20.336                   20.372                   20.454                   20.465                   20.471                   20.474
12.000                   1.5000                   1.0000                   1.7000                   6000.0                   1000.0                   55.000                   387.71                   440.12                   585.37                   607.58                   620.75                   623.65                   387.18                   439.46                   584.54                   606.93                   620.17                   623.01                   386.09                   438.46                   584.29                   606.76                   620.07                   622.99                   316.66                   361.94                   489.52                   508.47                   519.90                   522.79                   83.061                   88.070                   101.10                   102.98                   103.57                   103.67                   26.825                   27.261                   28.180                   28.292                   28.361                   28.384                   21.056                   21.148                   21.366                   21.396                   21.414                   21.420                   20.473                   20.518                   20.625                   20.640                   20.649                   20.652                   20.401                   20.439                   20.529                   20.541                   20.548                   20.551                   20.379                   20.415                   20.497                   20.508                   20.515                   20.517
12.000                   1.5000                   1.0000                   1.7000                   6000.0                   1000.0                   60.000                   422.93                   476.57                   625.49                   648.95                   662.95                   665.95                   422.39                   475.87                   624.54                   648.16                   662.19                   665.13                   421.05                   474.62                   623.96                   647.58                   661.71                   664.72                   347.16                   394.15                   526.92                   546.66                   558.54                   561.49                   93.873                   99.206                   113.26                   115.32                   115.94                   116.05                   28.508                   28.975                   29.948                   30.064                   30.135                   30.159                   21.264                   21.359                   21.585                   21.615                   21.634                   21.641                   20.537                   20.583                   20.691                   20.706                   20.715                   20.718                   20.450                   20.488                   20.579                   20.591                   20.599                   20.601                   20.425                   20.460                   20.543                   20.554                   20.561                   20.563
12.000                   1.5000                   1.0000                   1.7000                   6000.0                   1000.0                   65.000                   458.06                   512.90                   665.43                   690.14                   704.96                   708.06                   457.50                   512.18                   664.35                   689.21                   704.02                   707.05                   455.93                   510.67                   663.44                   688.22                   703.15                   706.26                   377.63                   426.32                   564.26                   584.78                   597.10                   600.11                   104.72                   110.38                   125.45                   127.68                   128.34                   128.45                   30.201                   30.700                   31.726                   31.847                   31.921                   31.946                   21.473                   21.572                   21.805                   21.836                   21.856                   21.862                   20.600                   20.647                   20.757                   20.772                   20.781                   20.784                   20.499                   20.538                   20.629                   20.642                   20.649                   20.652                   20.470                   20.506                   20.589                   20.600                   20.607                   20.609
12.000                   1.5000                   1.0000                   1.7000                   6000.0                   1000.0                   70.000                   493.19                   549.23                   705.37                   731.32                   746.97                   750.18                   492.61                   548.48                   704.16                   730.25                   745.85                   748.98                   490.80                   546.72                   702.92                   728.85                   744.59                   747.81                   408.10                   458.49                   601.59                   622.89                   635.66                   638.73                   115.56                   121.55                   137.65                   140.05                   140.74                   140.86                   31.895                   32.425                   33.504                   33.630                   33.707                   33.732                   21.682                   21.784                   22.025                   22.057                   22.077                   22.084                   20.664                   20.712                   20.824                   20.839                   20.848                   20.851                   20.548                   20.588                   20.680                   20.692                   20.700                   20.702                   20.516                   20.551                   20.635                   20.646                   20.653                   20.655
12.000                   1.5000                   1.0000                   1.7000                   6000.0                   1000.0                   75.000                   526.11                   582.81                   745.15                   772.84                   789.26                   792.54                   525.50                   581.99                   743.56                   771.36                   787.69                   790.88                   523.45                   579.94                   741.53                   769.09                   785.58                   788.86                   437.12                   488.75                   635.45                   657.44                   670.59                   673.71                   126.74                   132.99                   149.72                   152.21                   152.96                   153.08                   33.805                   34.363                   35.487                   35.618                   35.697                   35.723                   21.923                   22.027                   22.274                   22.307                   22.328                   22.335                   20.732                   20.780                   20.893                   20.908                   20.917                   20.921                   20.599                   20.639                   20.731                   20.744                   20.752                   20.754                   20.562                   20.598                   20.682                   20.693                   20.700                   20.702