% Model:              batchmodel_COIL_N_12_COIL_kr_3_COIL_kh_1_COIL_kturn_1.7_FUNZ_freq_6000_FUNZ_I_eff_1000.mph
% Version:            COMSOL 5.6.0.280
% Date:               Feb 2 2022, 00:38
% Table:              Tabella 1 - GRIGLIA_T
% COIL_N                 COIL_kr                  COIL_kh                  COIL_kturn               FUNZ_freq                FUNZ_I_eff               Time (s)                 Temperatura (degC), Punto: (0, 0)Temperatura (degC), Punto: (15, 0)Temperatura (degC), Punto: (27.483, 0)Temperatura (degC), Punto: (28.742, 0)Temperatura (degC), Punto: (29.497, 0)Temperatura (degC), Punto: (29.748, 0)Temperatura (degC), Punto: (0, 62.5)Temperatura (degC), Punto: (15, 62.5)Temperatura (degC), Punto: (27.483, 62.5)Temperatura (degC), Punto: (28.742, 62.5)Temperatura (degC), Punto: (29.497, 62.5)Temperatura (degC), Punto: (29.748, 62.5)Temperatura (degC), Punto: (0, 125)Temperatura (degC), Punto: (15, 125)Temperatura (degC), Punto: (27.483, 125)Temperatura (degC), Punto: (28.742, 125)Temperatura (degC), Punto: (29.497, 125)Temperatura (degC), Punto: (29.748, 125)Temperatura (degC), Punto: (0, 187.5)Temperatura (degC), Punto: (15, 187.5)Temperatura (degC), Punto: (27.483, 187.5)Temperatura (degC), Punto: (28.742, 187.5)Temperatura (degC), Punto: (29.497, 187.5)Temperatura (degC), Punto: (29.748, 187.5)Temperatura (degC), Punto: (0, 250)Temperatura (degC), Punto: (15, 250)Temperatura (degC), Punto: (27.483, 250)Temperatura (degC), Punto: (28.742, 250)Temperatura (degC), Punto: (29.497, 250)Temperatura (degC), Punto: (29.748, 250)Temperatura (degC), Punto: (0, 312.5)Temperatura (degC), Punto: (15, 312.5)Temperatura (degC), Punto: (27.483, 312.5)Temperatura (degC), Punto: (28.742, 312.5)Temperatura (degC), Punto: (29.497, 312.5)Temperatura (degC), Punto: (29.748, 312.5)Temperatura (degC), Punto: (0, 375)Temperatura (degC), Punto: (15, 375)Temperatura (degC), Punto: (27.483, 375)Temperatura (degC), Punto: (28.742, 375)Temperatura (degC), Punto: (29.497, 375)Temperatura (degC), Punto: (29.748, 375)Temperatura (degC), Punto: (0, 437.5)Temperatura (degC), Punto: (15, 437.5)Temperatura (degC), Punto: (27.483, 437.5)Temperatura (degC), Punto: (28.742, 437.5)Temperatura (degC), Punto: (29.497, 437.5)Temperatura (degC), Punto: (29.748, 437.5)Temperatura (degC), Punto: (0, 468.75)Temperatura (degC), Punto: (15, 468.75)Temperatura (degC), Punto: (27.483, 468.75)Temperatura (degC), Punto: (28.742, 468.75)Temperatura (degC), Punto: (29.497, 468.75)Temperatura (degC), Punto: (29.748, 468.75)Temperatura (degC), Punto: (0, 492.19)Temperatura (degC), Punto: (15, 492.19)Temperatura (degC), Punto: (27.483, 492.19)Temperatura (degC), Punto: (28.742, 492.19)Temperatura (degC), Punto: (29.497, 492.19)Temperatura (degC), Punto: (29.748, 492.19)
12.000                   3.0000                   1.0000                   1.7000                   6000.0                   1000.0                   0.0000                   20.000                   20.000                   20.000                   20.000                   20.014                   20.078                   20.000                   20.000                   20.000                   20.000                   20.014                   20.078                   20.000                   20.000                   20.000                   20.000                   20.014                   20.077                   20.000                   20.000                   20.000                   20.000                   20.008                   20.058                   20.000                   20.000                   20.000                   20.000                   20.001                   20.014                   20.000                   20.000                   20.000                   20.000                   20.000                   20.002                   20.000                   20.000                   20.000                   20.000                   20.000                   20.000                   20.000                   20.000                   20.000                   20.000                   20.000                   20.000                   20.000                   20.000                   20.000                   20.000                   20.000                   20.000                   20.000                   20.000                   20.000                   20.000                   20.000                   20.000
12.000                   3.0000                   1.0000                   1.7000                   6000.0                   1000.0                   5.0000                   22.522                   30.827                   77.679                   86.470                   92.139                   93.862                   22.506                   30.738                   77.092                   85.847                   91.491                   93.255                   22.283                   29.878                   75.341                   83.693                   88.482                   89.833                   21.363                   26.227                   59.581                   66.538                   70.886                   72.185                   20.310                   21.594                   33.186                   35.732                   37.185                   37.598                   19.760                   19.314                   21.482                   22.204                   22.739                   22.903                   19.893                   19.687                   21.127                   21.407                   21.604                   21.696                   20.062                   20.272                   21.110                   21.203                   21.265                   21.275                   20.030                   20.123                   20.533                   20.579                   20.600                   20.605                   20.011                   20.041                   20.171                   20.191                   20.204                   20.209
12.000                   3.0000                   1.0000                   1.7000                   6000.0                   1000.0                   10.000                   38.321                   58.899                   125.86                   136.44                   142.86                   144.72                   38.486                   59.249                   126.64                   137.25                   143.83                   145.81                   37.941                   58.623                   127.88                   138.45                   144.07                   145.52                   32.180                   47.136                   100.04                   108.48                   113.06                   114.30                   24.221                   30.088                   53.223                   56.915                   58.675                   59.071                   20.751                   22.687                   31.837                   33.489                   34.480                   34.708                   20.642                   21.986                   28.432                   29.363                   29.742                   29.863                   20.371                   20.735                   21.695                   21.860                   21.971                   21.990                   20.204                   20.417                   21.054                   21.132                   21.163                   21.168                   20.082                   20.152                   20.327                   20.350                   20.365                   20.369
12.000                   3.0000                   1.0000                   1.7000                   6000.0                   1000.0                   15.000                   64.763                   92.219                   167.26                   178.16                   184.80                   186.67                   65.379                   93.225                   169.03                   179.99                   186.74                   188.67                   64.457                   92.238                   168.44                   179.19                   185.42                   187.08                   51.584                   72.211                   128.88                   136.82                   141.40                   142.68                   31.937                   40.221                   63.037                   65.968                   67.468                   67.865                   23.837                   27.171                   36.265                   37.447                   38.132                   38.304                   22.516                   24.673                   30.825                   31.499                   31.768                   31.841                   20.776                   21.141                   21.902                   21.999                   22.065                   22.081                   20.444                   20.678                   21.209                   21.264                   21.288                   21.292                   20.207                   20.295                   20.480                   20.501                   20.514                   20.519
12.000                   3.0000                   1.0000                   1.7000                   6000.0                   1000.0                   20.000                   96.508                   126.67                   203.10                   213.74                   220.38                   222.20                   97.576                   128.12                   205.07                   215.76                   222.39                   224.20                   96.263                   126.85                   205.04                   215.92                   222.49                   224.39                   75.348                   98.161                   155.60                   163.58                   168.39                   169.82                   41.463                   50.192                   70.818                   73.521                   74.996                   75.379                   27.785                   31.327                   38.788                   39.591                   39.972                   40.040                   24.636                   26.746                   31.233                   31.596                   31.722                   31.747                   21.219                   21.565                   22.343                   22.450                   22.510                   22.520                   20.700                   20.921                   21.383                   21.424                   21.442                   21.449                   20.360                   20.448                   20.619                   20.639                   20.650                   20.654
12.000                   3.0000                   1.0000                   1.7000                   6000.0                   1000.0                   25.000                   129.43                   160.97                   240.48                   251.76                   258.82                   260.67                   130.88                   162.76                   242.54                   253.85                   260.82                   262.67                   129.71                   162.62                   248.83                   261.37                   268.51                   270.51                   100.40                   124.47                   186.07                   194.82                   199.79                   201.22                   51.815                   61.041                   84.594                   87.903                   89.461                   89.782                   32.196                   36.189                   46.099                   47.507                   48.179                   48.274                   26.811                   29.146                   35.577                   36.370                   36.654                   36.703                   21.729                   22.126                   23.156                   23.320                   23.417                   23.430                   20.990                   21.255                   21.966                   22.043                   22.071                   22.076                   20.528                   20.614                   20.777                   20.795                   20.806                   20.810
12.000                   3.0000                   1.0000                   1.7000                   6000.0                   1000.0                   30.000                   163.65                   196.99                   283.63                   296.30                   304.19                   306.26                   165.42                   199.04                   285.30                   297.81                   305.51                   307.53                   164.54                   199.49                   292.13                   305.87                   313.61                   315.67                   126.50                   151.83                   217.29                   226.61                   231.84                   233.33                   63.883                   73.912                   99.908                   103.52                   105.13                   105.47                   37.837                   42.523                   54.227                   55.896                   56.657                   56.772                   29.509                   32.283                   40.093                   41.052                   41.385                   41.436                   22.456                   22.922                   24.090                   24.268                   24.372                   24.386                   21.426                   21.784                   22.747                   22.848                   22.884                   22.890                   20.758                   20.846                   21.009                   21.027                   21.038                   21.042
12.000                   3.0000                   1.0000                   1.7000                   6000.0                   1000.0                   35.000                   198.06                   233.25                   326.71                   340.63                   349.26                   351.50                   200.12                   235.53                   328.23                   341.87                   350.26                   352.44                   199.31                   236.06                   333.81                   348.39                   356.67                   358.78                   152.58                   178.97                   247.22                   256.92                   262.41                   263.97                   75.945                   86.444                   113.31                   116.95                   118.59                   118.95                   43.282                   48.306                   60.460                   62.133                   62.881                   63.006                   32.016                   34.972                   43.025                   43.975                   44.302                   44.350                   23.180                   23.681                   24.865                   25.033                   25.132                   25.146                   21.852                   22.263                   23.332                   23.438                   23.478                   23.485                   20.998                   21.088                   21.253                   21.271                   21.282                   21.285
12.000                   3.0000                   1.0000                   1.7000                   6000.0                   1000.0                   40.000                   232.84                   269.89                   368.08                   382.60                   391.53                   393.80                   235.07                   272.33                   370.39                   384.83                   393.70                   395.95                   233.58                   271.43                   370.39                   384.82                   393.44                   395.61                   178.34                   205.08                   272.67                   282.15                   287.86                   289.45                   87.573                   97.339                   119.93                   122.76                   124.29                   124.73                   47.750                   51.864                   60.205                   61.127                   61.585                   61.697                   33.739                   35.961                   40.639                   41.074                   41.247                   41.282                   23.841                   24.254                   25.069                   25.161                   25.214                   25.225                   22.203                   22.529                   23.210                   23.271                   23.298                   23.304                   21.257                   21.347                   21.515                   21.534                   21.546                   21.550
12.000                   3.0000                   1.0000                   1.7000                   6000.0                   1000.0                   45.000                   267.68                   306.58                   409.58                   424.75                   434.04                   436.34                   270.02                   309.13                   412.90                   428.29                   437.72                   440.04                   267.66                   306.84                   408.91                   423.53                   432.25                   434.46                   204.06                   231.46                   300.62                   310.37                   316.36                   317.98                   99.305                   108.76                   130.05                   132.72                   134.28                   134.78                   52.142                   55.736                   62.476                   63.125                   63.482                   63.591                   35.490                   37.358                   40.893                   41.203                   41.362                   41.409                   24.533                   24.915                   25.644                   25.723                   25.770                   25.783                   22.574                   22.863                   23.405                   23.450                   23.473                   23.479                   21.530                   21.621                   21.794                   21.814                   21.826                   21.830
12.000                   3.0000                   1.0000                   1.7000                   6000.0                   1000.0                   50.000                   302.57                   343.32                   451.20                   467.04                   476.77                   479.09                   304.96                   345.94                   455.71                   472.18                   482.25                   484.65                   301.57                   342.27                   449.16                   464.32                   472.90                   475.13                   229.76                   258.10                   330.83                   341.29                   347.59                   349.24                   111.13                   120.67                   143.31                   146.40                   148.13                   148.67                   56.466                   59.891                   67.022                   67.829                   68.253                   68.369                   37.264                   39.123                   43.524                   44.059                   44.332                   44.412                   25.251                   25.654                   26.554                   26.678                   26.755                   26.771                   22.963                   23.260                   23.884                   23.942                   23.968                   23.975                   21.815                   21.907                   22.087                   22.108                   22.121                   22.125
12.000                   3.0000                   1.0000                   1.7000                   6000.0                   1000.0                   55.000                   337.23                   379.77                   492.88                   509.60                   519.90                   522.28                   339.55                   382.30                   497.65                   515.05                   525.60                   528.07                   334.97                   377.25                   489.57                   505.68                   514.69                   517.02                   255.55                   285.08                   362.05                   373.18                   379.78                   381.46                   123.49                   133.48                   158.27                   161.68                   163.46                   163.97                   61.243                   64.955                   73.585                   74.721                   75.304                   75.409                   39.531                   41.796                   48.037                   48.859                   49.224                   49.318                   26.058                   26.512                   27.597                   27.755                   27.853                   27.871                   23.411                   23.739                   24.474                   24.540                   24.567                   24.573                   22.131                   22.226                   22.408                   22.429                   22.442                   22.446
12.000                   3.0000                   1.0000                   1.7000                   6000.0                   1000.0                   60.000                   371.75                   416.09                   534.81                   552.51                   563.43                   565.88                   373.96                   418.49                   539.44                   557.77                   568.78                   571.32                   368.12                   411.99                   529.80                   546.95                   556.57                   559.01                   281.29                   312.04                   393.00                   404.72                   411.61                   413.32                   135.90                   146.33                   172.79                   176.40                   178.18                   178.66                   66.024                   70.002                   79.835                   81.226                   81.937                   82.030                   41.809                   44.430                   52.079                   53.099                   53.516                   53.613                   26.868                   27.362                   28.567                   28.742                   28.851                   28.870                   23.862                   24.213                   25.019                   25.090                   25.116                   25.122                   22.455                   22.551                   22.735                   22.756                   22.768                   22.772
12.000                   3.0000                   1.0000                   1.7000                   6000.0                   1000.0                   65.000                   405.61                   451.95                   578.30                   597.52                   609.11                   611.69                   407.62                   454.07                   581.43                   600.90                   612.52                   615.13                   400.37                   445.75                   568.47                   586.70                   597.35                   599.85                   306.68                   338.28                   420.52                   432.35                   439.49                   441.29                   147.96                   158.01                   181.78                   184.86                   186.59                   187.11                   70.167                   73.578                   80.928                   81.812                   82.290                   82.397                   43.431                   45.458                   50.079                   50.578                   50.794                   50.848                   27.572                   27.981                   28.827                   28.928                   28.988                   29.002                   24.247                   24.530                   25.095                   25.144                   25.167                   25.173                   22.785                   22.877                   23.054                   23.074                   23.087                   23.091
12.000                   3.0000                   1.0000                   1.7000                   6000.0                   1000.0                   70.000                   439.14                   487.56                   621.49                   642.31                   654.59                   657.30                   440.94                   489.37                   623.23                   644.01                   656.32                   659.02                   432.32                   479.42                   607.99                   627.52                   639.10                   641.68                   332.04                   364.63                   449.35                   461.56                   468.98                   470.85                   160.17                   170.13                   193.09                   196.05                   197.83                   198.39                   74.500                   77.665                   84.121                   84.858                   85.297                   85.437                   45.088                   46.778                   49.968                   50.225                   50.328                   50.352                   28.283                   28.642                   29.318                   29.388                   29.427                   29.437                   24.644                   24.888                   25.342                   25.382                   25.403                   25.410                   23.119                   23.209                   23.381                   23.401                   23.413                   23.417
12.000                   3.0000                   1.0000                   1.7000                   6000.0                   1000.0                   75.000                   472.23                   522.83                   664.27                   686.77                   699.81                   702.67                   473.80                   524.29                   664.78                   687.08                   700.21                   703.04                   463.86                   512.94                   648.68                   669.79                   682.15                   684.83                   357.34                   391.14                   479.97                   492.92                   500.64                   502.56                   172.58                   182.83                   207.53                   210.91                   212.90                   213.47                   79.089                   82.442                   90.154                   91.230                   91.893                   92.095                   46.792                   48.495                   52.413                   52.804                   52.914                   52.926                   29.003                   29.361                   30.121                   30.218                   30.274                   30.284                   25.056                   25.301                   25.819                   25.869                   25.892                   25.899                   23.460                   23.548                   23.719                   23.739                   23.751                   23.755