% Model:              batchmodel_COIL_N_12_COIL_kr_1.5_COIL_kh_1_COIL_kturn_1.4_FUNZ_freq_10000_FUNZ_I_eff_2500.mph
% Version:            COMSOL 5.6.0.280
% Date:               Feb 1 2022, 12:55
% Table:              Tabella 1 - GRIGLIA_T
% COIL_N                 COIL_kr                  COIL_kh                  COIL_kturn               FUNZ_freq                FUNZ_I_eff               Time (s)                 Temperatura (degC), Punto: (0, 0)Temperatura (degC), Punto: (15, 0)Temperatura (degC), Punto: (28.051, 0)Temperatura (degC), Punto: (29.025, 0)Temperatura (degC), Punto: (29.61, 0)Temperatura (degC), Punto: (29.805, 0)Temperatura (degC), Punto: (0, 62.5)Temperatura (degC), Punto: (15, 62.5)Temperatura (degC), Punto: (28.051, 62.5)Temperatura (degC), Punto: (29.025, 62.5)Temperatura (degC), Punto: (29.61, 62.5)Temperatura (degC), Punto: (29.805, 62.5)Temperatura (degC), Punto: (0, 125)Temperatura (degC), Punto: (15, 125)Temperatura (degC), Punto: (28.051, 125)Temperatura (degC), Punto: (29.025, 125)Temperatura (degC), Punto: (29.61, 125)Temperatura (degC), Punto: (29.805, 125)Temperatura (degC), Punto: (0, 187.5)Temperatura (degC), Punto: (15, 187.5)Temperatura (degC), Punto: (28.051, 187.5)Temperatura (degC), Punto: (29.025, 187.5)Temperatura (degC), Punto: (29.61, 187.5)Temperatura (degC), Punto: (29.805, 187.5)Temperatura (degC), Punto: (0, 250)Temperatura (degC), Punto: (15, 250)Temperatura (degC), Punto: (28.051, 250)Temperatura (degC), Punto: (29.025, 250)Temperatura (degC), Punto: (29.61, 250)Temperatura (degC), Punto: (29.805, 250)Temperatura (degC), Punto: (0, 312.5)Temperatura (degC), Punto: (15, 312.5)Temperatura (degC), Punto: (28.051, 312.5)Temperatura (degC), Punto: (29.025, 312.5)Temperatura (degC), Punto: (29.61, 312.5)Temperatura (degC), Punto: (29.805, 312.5)Temperatura (degC), Punto: (0, 375)Temperatura (degC), Punto: (15, 375)Temperatura (degC), Punto: (28.051, 375)Temperatura (degC), Punto: (29.025, 375)Temperatura (degC), Punto: (29.61, 375)Temperatura (degC), Punto: (29.805, 375)Temperatura (degC), Punto: (0, 437.5)Temperatura (degC), Punto: (15, 437.5)Temperatura (degC), Punto: (28.051, 437.5)Temperatura (degC), Punto: (29.025, 437.5)Temperatura (degC), Punto: (29.61, 437.5)Temperatura (degC), Punto: (29.805, 437.5)Temperatura (degC), Punto: (0, 468.75)Temperatura (degC), Punto: (15, 468.75)Temperatura (degC), Punto: (28.051, 468.75)Temperatura (degC), Punto: (29.025, 468.75)Temperatura (degC), Punto: (29.61, 468.75)Temperatura (degC), Punto: (29.805, 468.75)Temperatura (degC), Punto: (0, 492.19)Temperatura (degC), Punto: (15, 492.19)Temperatura (degC), Punto: (28.051, 492.19)Temperatura (degC), Punto: (29.025, 492.19)Temperatura (degC), Punto: (29.61, 492.19)Temperatura (degC), Punto: (29.805, 492.19)
12.000                   1.5000                   1.0000                   1.4000                   10000                    2500.0                   0.0000                   20.000                   20.000                   20.000                   20.002                   20.390                   20.781                   20.000                   20.000                   20.000                   20.002                   20.395                   20.788                   20.000                   20.000                   20.000                   20.002                   20.401                   20.797                   20.000                   20.000                   20.000                   20.000                   20.032                   20.144                   20.000                   20.000                   20.000                   20.000                   20.000                   20.006                   20.000                   20.000                   20.000                   20.000                   20.000                   20.001                   20.000                   20.000                   20.000                   20.000                   20.000                   20.000                   20.000                   20.000                   20.000                   20.000                   20.000                   20.000                   20.000                   20.000                   20.000                   20.000                   20.000                   20.000                   20.000                   20.000                   20.000                   20.000                   20.000                   20.000
12.000                   1.5000                   1.0000                   1.4000                   10000                    2500.0                   5.0000                   41.829                   129.64                   773.74                   933.28                   1004.1                   1015.9                   41.649                   129.89                   782.31                   944.78                   1015.3                   1026.9                   41.584                   129.69                   808.23                   974.66                   1042.6                   1053.5                   25.407                   48.172                   180.99                   199.51                   211.06                   214.10                   20.503                   22.976                   36.776                   38.196                   38.658                   38.837                   20.161                   20.832                   23.394                   23.560                   23.651                   23.680                   20.010                   20.057                   20.341                   20.380                   20.404                   20.412                   20.005                   20.026                   20.148                   20.164                   20.174                   20.178                   20.004                   20.020                   20.113                   20.125                   20.133                   20.135                   20.004                   20.018                   20.095                   20.105                   20.112                   20.114
12.000                   1.5000                   1.0000                   1.4000                   10000                    2500.0                   10.000                   165.51                   323.39                   888.38                   946.19                   971.79                   976.32                   165.76                   327.89                   1081.3                   1136.9                   1150.9                   1152.2                   165.37                   332.13                   1191.3                   1229.8                   1238.1                   1238.3                   68.788                   120.82                   267.62                   282.43                   291.35                   293.69                   24.064                   27.958                   36.404                   37.072                   37.476                   37.608                   21.065                   21.909                   23.439                   23.544                   23.606                   23.626                   20.096                   20.202                   20.495                   20.524                   20.542                   20.548                   20.041                   20.087                   20.220                   20.233                   20.242                   20.245                   20.032                   20.067                   20.172                   20.183                   20.189                   20.192                   20.028                   20.059                   20.150                   20.160                   20.166                   20.168
12.000                   1.5000                   1.0000                   1.4000                   10000                    2500.0                   15.000                   307.16                   472.45                   1074.6                   1109.1                   1117.5                   1118.0                   307.90                   478.47                   1129.5                   1155.6                   1161.1                   1161.1                   307.53                   483.89                   1162.0                   1183.4                   1187.4                   1187.2                   132.12                   188.11                   330.32                   344.35                   352.79                   354.96                   28.476                   31.880                   39.046                   39.662                   40.035                   40.158                   21.879                   22.495                   23.662                   23.755                   23.812                   23.830                   20.247                   20.364                   20.647                   20.675                   20.691                   20.697                   20.098                   20.149                   20.282                   20.295                   20.303                   20.305                   20.075                   20.116                   20.223                   20.234                   20.240                   20.242                   20.068                   20.104                   20.198                   20.208                   20.213                   20.215
12.000                   1.5000                   1.0000                   1.4000                   10000                    2500.0                   20.000                   425.25                   584.89                   1143.5                   1160.7                   1163.7                   1163.3                   426.00                   589.17                   1155.7                   1171.5                   1174.0                   1173.6                   425.47                   592.92                   1165.6                   1180.3                   1182.5                   1182.0                   192.05                   246.64                   385.57                   399.55                   407.96                   410.09                   33.152                   36.258                   43.074                   43.689                   44.064                   44.189                   22.527                   23.017                   24.045                   24.135                   24.191                   24.209                   20.417                   20.534                   20.812                   20.838                   20.855                   20.860                   20.159                   20.212                   20.343                   20.356                   20.364                   20.367                   20.124                   20.166                   20.273                   20.284                   20.290                   20.293                   20.112                   20.150                   20.245                   20.255                   20.260                   20.262
12.000                   1.5000                   1.0000                   1.4000                   10000                    2500.0                   25.000                   518.16                   669.66                   1174.1                   1185.6                   1186.9                   1186.3                   518.75                   672.51                   1179.0                   1190.1                   1191.4                   1190.8                   517.91                   674.76                   1183.6                   1194.4                   1195.5                   1194.9                   244.84                   297.58                   433.81                   447.67                   455.97                   458.04                   38.487                   41.497                   48.286                   48.912                   49.294                   49.421                   23.125                   23.562                   24.540                   24.630                   24.685                   24.704                   20.593                   20.707                   20.983                   21.009                   21.026                   21.031                   20.221                   20.274                   20.406                   20.419                   20.427                   20.429                   20.174                   20.217                   20.324                   20.335                   20.341                   20.343                   20.158                   20.197                   20.292                   20.302                   20.307                   20.309
12.000                   1.5000                   1.0000                   1.4000                   10000                    2500.0                   30.000                   595.46                   741.53                   1201.4                   1209.9                   1210.3                   1209.6                   595.84                   743.62                   1203.8                   1212.3                   1212.7                   1211.9                   594.70                   744.78                   1206.4                   1214.7                   1215.2                   1214.4                   292.36                   343.40                   476.89                   490.61                   498.82                   500.83                   44.505                   47.500                   54.363                   55.001                   55.392                   55.522                   23.736                   24.148                   25.106                   25.197                   25.253                   25.271                   20.769                   20.882                   21.157                   21.183                   21.200                   21.205                   20.285                   20.338                   20.469                   20.482                   20.490                   20.493                   20.225                   20.268                   20.375                   20.386                   20.392                   20.394                   20.205                   20.244                   20.340                   20.349                   20.355                   20.357
12.000                   1.5000                   1.0000                   1.4000                   10000                    2500.0                   35.000                   653.08                   816.15                   1232.7                   1239.7                   1239.7                   1238.8                   653.15                   817.32                   1234.4                   1241.4                   1241.3                   1240.5                   651.87                   817.23                   1235.6                   1242.6                   1242.6                   1241.7                   333.37                   382.97                   513.41                   526.95                   535.04                   537.01                   51.542                   54.568                   61.551                   62.203                   62.602                   62.735                   24.420                   24.824                   25.781                   25.872                   25.928                   25.947                   20.948                   21.061                   21.335                   21.362                   21.379                   21.384                   20.350                   20.403                   20.535                   20.548                   20.556                   20.559                   20.277                   20.320                   20.427                   20.437                   20.444                   20.446                   20.253                   20.292                   20.388                   20.397                   20.403                   20.405
12.000                   1.5000                   1.0000                   1.4000                   10000                    2500.0                   40.000                   703.83                   893.87                   1266.0                   1272.0                   1271.5                   1270.5                   703.56                   894.02                   1267.2                   1273.2                   1272.7                   1271.8                   702.21                   892.45                   1267.1                   1273.2                   1272.8                   1271.8                   372.11                   420.35                   547.62                   560.96                   568.93                   570.85                   58.951                   62.018                   69.132                   69.798                   70.205                   70.341                   25.135                   25.535                   26.496                   26.588                   26.645                   26.664                   21.128                   21.241                   21.516                   21.543                   21.560                   21.565                   20.417                   20.470                   20.601                   20.614                   20.622                   20.625                   20.329                   20.372                   20.479                   20.490                   20.496                   20.498                   20.301                   20.340                   20.436                   20.445                   20.451                   20.453
12.000                   1.5000                   1.0000                   1.4000                   10000                    2500.0                   45.000                   756.85                   971.86                   1306.8                   1311.9                   1311.0                   1309.8                   756.52                   971.81                   1307.8                   1313.0                   1312.1                   1311.0                   750.91                   967.53                   1305.8                   1311.1                   1310.3                   1309.2                   405.75                   452.63                   576.02                   588.98                   596.74                   598.60                   67.176                   70.288                   77.517                   78.194                   78.608                   78.746                   25.971                   26.373                   27.338                   27.431                   27.489                   27.508                   21.314                   21.427                   21.703                   21.730                   21.747                   21.752                   20.485                   20.538                   20.670                   20.683                   20.691                   20.693                   20.382                   20.425                   20.532                   20.543                   20.550                   20.552                   20.350                   20.390                   20.485                   20.494                   20.500                   20.502
12.000                   1.5000                   1.0000                   1.4000                   10000                    2500.0                   50.000                   822.61                   1046.8                   1344.9                   1349.0                   1347.7                   1346.4                   822.26                   1046.6                   1345.8                   1349.9                   1348.6                   1347.4                   812.69                   1039.9                   1342.6                   1347.0                   1345.7                   1344.5                   437.97                   483.52                   602.90                   615.48                   623.02                   624.81                   75.586                   78.741                   86.074                   86.761                   87.182                   87.321                   26.854                   27.257                   28.229                   28.323                   28.380                   28.399                   21.503                   21.616                   21.893                   21.920                   21.937                   21.943                   20.554                   20.607                   20.739                   20.752                   20.760                   20.763                   20.436                   20.479                   20.586                   20.597                   20.603                   20.605                   20.400                   20.439                   20.534                   20.544                   20.549                   20.551
12.000                   1.5000                   1.0000                   1.4000                   10000                    2500.0                   55.000                   914.17                   1115.7                   1377.7                   1380.5                   1378.6                   1377.3                   913.87                   1115.5                   1378.4                   1381.2                   1379.3                   1378.0                   901.01                   1106.7                   1375.5                   1378.6                   1376.8                   1375.5                   467.38                   511.66                   626.76                   638.95                   646.24                   647.96                   84.365                   87.553                   94.969                   95.664                   96.089                   96.230                   27.832                   28.238                   29.214                   29.309                   29.366                   29.386                   21.698                   21.812                   22.089                   22.116                   22.133                   22.138                   20.625                   20.678                   20.810                   20.823                   20.831                   20.833                   20.490                   20.533                   20.640                   20.651                   20.657                   20.660                   20.450                   20.489                   20.584                   20.594                   20.599                   20.601
12.000                   1.5000                   1.0000                   1.4000                   10000                    2500.0                   60.000                   999.84                   1175.5                   1400.5                   1402.2                   1400.0                   1398.5                   999.58                   1175.3                   1401.1                   1402.9                   1400.6                   1399.2                   984.47                   1165.2                   1398.5                   1400.6                   1398.4                   1397.0                   494.51                   537.55                   648.47                   660.22                   667.24                   668.89                   93.354                   96.570                   104.06                   104.76                   105.19                   105.33                   28.917                   29.325                   30.306                   30.400                   30.458                   30.478                   21.901                   22.015                   22.292                   22.319                   22.336                   22.342                   20.697                   20.750                   20.882                   20.895                   20.903                   20.906                   20.545                   20.588                   20.695                   20.706                   20.712                   20.715                   20.501                   20.540                   20.635                   20.644                   20.650                   20.652
12.000                   1.5000                   1.0000                   1.4000                   10000                    2500.0                   65.000                   1082.5                   1230.9                   1418.3                   1419.1                   1416.5                   1415.0                   1082.3                   1230.7                   1418.9                   1419.7                   1417.1                   1415.6                   1065.4                   1219.6                   1416.7                   1417.7                   1415.2                   1413.7                   520.48                   562.31                   669.09                   680.38                   687.12                   688.69                   102.45                   105.69                   113.24                   113.95                   114.38                   114.52                   30.056                   30.466                   31.451                   31.546                   31.604                   31.623                   22.108                   22.222                   22.499                   22.527                   22.543                   22.549                   20.771                   20.824                   20.955                   20.968                   20.976                   20.979                   20.601                   20.644                   20.751                   20.761                   20.768                   20.770                   20.552                   20.591                   20.686                   20.695                   20.701                   20.703
12.000                   1.5000                   1.0000                   1.4000                   10000                    2500.0                   70.000                   1148.2                   1273.3                   1434.3                   1434.8                   1432.0                   1430.4                   1148.0                   1273.1                   1434.9                   1435.5                   1432.7                   1431.2                   1130.3                   1261.7                   1432.0                   1432.8                   1430.1                   1428.5                   543.80                   584.45                   687.58                   698.42                   704.91                   706.42                   111.69                   114.95                   122.56                   123.27                   123.71                   123.85                   31.360                   31.772                   32.761                   32.856                   32.915                   32.934                   22.329                   22.443                   22.721                   22.748                   22.765                   22.770                   20.846                   20.899                   21.031                   21.044                   21.052                   21.054                   20.658                   20.701                   20.807                   20.818                   20.824                   20.827                   20.604                   20.643                   20.737                   20.747                   20.752                   20.754
12.000                   1.5000                   1.0000                   1.4000                   10000                    2500.0                   75.000                   1208.3                   1312.0                   1455.1                   1455.4                   1452.5                   1450.9                   1208.1                   1311.9                   1455.8                   1456.2                   1453.3                   1451.7                   1189.7                   1300.3                   1450.7                   1451.2                   1448.4                   1446.8                   566.36                   605.92                   705.56                   715.96                   722.20                   723.64                   120.93                   124.22                   131.88                   132.60                   133.04                   133.19                   32.724                   33.137                   34.131                   34.226                   34.285                   34.304                   22.556                   22.670                   22.949                   22.976                   22.992                   22.998                   20.923                   20.976                   21.107                   21.120                   21.128                   21.131                   20.715                   20.758                   20.864                   20.875                   20.881                   20.884                   20.656                   20.695                   20.790                   20.799                   20.804                   20.806