% Model:              batchmodel_COIL_N_12_COIL_kr_3_COIL_kh_3_COIL_kturn_1.1_FUNZ_freq_10000_FUNZ_I_eff_1000.mph
% Version:            COMSOL 5.6.0.280
% Date:               Feb 2 2022, 03:32
% Table:              Tabella 1 - GRIGLIA_T
% COIL_N                 COIL_kr                  COIL_kh                  COIL_kturn               FUNZ_freq                FUNZ_I_eff               Time (s)                 Temperatura (degC), Punto: (0, 0)Temperatura (degC), Punto: (15, 0)Temperatura (degC), Punto: (28.051, 0)Temperatura (degC), Punto: (29.025, 0)Temperatura (degC), Punto: (29.61, 0)Temperatura (degC), Punto: (29.805, 0)Temperatura (degC), Punto: (0, 62.5)Temperatura (degC), Punto: (15, 62.5)Temperatura (degC), Punto: (28.051, 62.5)Temperatura (degC), Punto: (29.025, 62.5)Temperatura (degC), Punto: (29.61, 62.5)Temperatura (degC), Punto: (29.805, 62.5)Temperatura (degC), Punto: (0, 125)Temperatura (degC), Punto: (15, 125)Temperatura (degC), Punto: (28.051, 125)Temperatura (degC), Punto: (29.025, 125)Temperatura (degC), Punto: (29.61, 125)Temperatura (degC), Punto: (29.805, 125)Temperatura (degC), Punto: (0, 187.5)Temperatura (degC), Punto: (15, 187.5)Temperatura (degC), Punto: (28.051, 187.5)Temperatura (degC), Punto: (29.025, 187.5)Temperatura (degC), Punto: (29.61, 187.5)Temperatura (degC), Punto: (29.805, 187.5)Temperatura (degC), Punto: (0, 250)Temperatura (degC), Punto: (15, 250)Temperatura (degC), Punto: (28.051, 250)Temperatura (degC), Punto: (29.025, 250)Temperatura (degC), Punto: (29.61, 250)Temperatura (degC), Punto: (29.805, 250)Temperatura (degC), Punto: (0, 312.5)Temperatura (degC), Punto: (15, 312.5)Temperatura (degC), Punto: (28.051, 312.5)Temperatura (degC), Punto: (29.025, 312.5)Temperatura (degC), Punto: (29.61, 312.5)Temperatura (degC), Punto: (29.805, 312.5)Temperatura (degC), Punto: (0, 375)Temperatura (degC), Punto: (15, 375)Temperatura (degC), Punto: (28.051, 375)Temperatura (degC), Punto: (29.025, 375)Temperatura (degC), Punto: (29.61, 375)Temperatura (degC), Punto: (29.805, 375)Temperatura (degC), Punto: (0, 437.5)Temperatura (degC), Punto: (15, 437.5)Temperatura (degC), Punto: (28.051, 437.5)Temperatura (degC), Punto: (29.025, 437.5)Temperatura (degC), Punto: (29.61, 437.5)Temperatura (degC), Punto: (29.805, 437.5)Temperatura (degC), Punto: (0, 468.75)Temperatura (degC), Punto: (15, 468.75)Temperatura (degC), Punto: (28.051, 468.75)Temperatura (degC), Punto: (29.025, 468.75)Temperatura (degC), Punto: (29.61, 468.75)Temperatura (degC), Punto: (29.805, 468.75)Temperatura (degC), Punto: (0, 492.19)Temperatura (degC), Punto: (15, 492.19)Temperatura (degC), Punto: (28.051, 492.19)Temperatura (degC), Punto: (29.025, 492.19)Temperatura (degC), Punto: (29.61, 492.19)Temperatura (degC), Punto: (29.805, 492.19)
12.000                   3.0000                   3.0000                   1.1000                   10000                    1000.0                   0.0000                   20.000                   20.000                   20.000                   20.000                   20.006                   20.050                   20.000                   20.000                   20.000                   20.000                   20.006                   20.050                   20.000                   20.000                   20.000                   20.000                   20.006                   20.050                   20.000                   20.000                   20.000                   20.000                   20.006                   20.050                   20.000                   20.000                   20.000                   20.000                   20.006                   20.050                   20.000                   20.000                   20.000                   20.000                   20.006                   20.050                   20.000                   20.000                   20.000                   20.000                   20.004                   20.040                   20.000                   20.000                   20.000                   20.000                   20.001                   20.010                   20.000                   20.000                   20.000                   20.000                   20.000                   20.004                   20.000                   20.000                   20.000                   20.000                   20.000                   20.001
12.000                   3.0000                   3.0000                   1.1000                   10000                    1000.0                   5.0000                   21.961                   26.662                   53.208                   56.875                   59.106                   59.815                   21.968                   26.727                   53.695                   57.445                   59.624                   60.336                   21.961                   26.694                   53.602                   57.321                   59.520                   60.234                   21.965                   26.715                   53.878                   57.726                   59.899                   60.608                   21.916                   26.517                   52.302                   55.851                   58.061                   58.779                   21.911                   26.481                   51.581                   55.033                   57.205                   57.907                   21.521                   25.195                   45.580                   48.352                   50.087                   50.655                   20.477                   21.627                   28.529                   29.518                   30.115                   30.309                   20.247                   20.871                   24.481                   24.950                   25.231                   25.310                   20.147                   20.451                   21.976                   22.157                   22.270                   22.307
12.000                   3.0000                   3.0000                   1.1000                   10000                    1000.0                   10.000                   31.301                   42.107                   79.887                   84.216                   86.645                   87.361                   31.352                   42.233                   80.311                   84.640                   86.979                   87.715                   31.323                   42.165                   80.384                   84.780                   87.091                   87.826                   31.337                   42.220                   80.586                   85.075                   87.375                   88.105                   30.818                   41.081                   75.943                   79.795                   82.130                   82.870                   30.401                   40.165                   72.957                   76.666                   78.934                   79.640                   28.287                   36.150                   62.923                   65.900                   67.693                   68.263                   23.247                   26.354                   37.436                   38.757                   39.451                   39.634                   21.860                   23.749                   31.195                   32.137                   32.643                   32.753                   21.066                   21.999                   25.354                   25.762                   25.977                   26.017
12.000                   3.0000                   3.0000                   1.1000                   10000                    1000.0                   15.000                   45.770                   60.737                   104.38                   108.94                   111.33                   112.00                   45.848                   60.847                   104.87                   109.49                   111.93                   112.68                   45.786                   60.740                   104.81                   109.45                   111.89                   112.65                   45.791                   60.787                   105.00                   109.74                   112.16                   112.92                   44.314                   58.180                   97.442                   101.44                   103.84                   104.58                   42.989                   55.930                   92.575                   96.432                   98.756                   99.471                   38.338                   48.779                   78.792                   81.899                   83.723                   84.285                   27.919                   32.547                   46.226                   47.766                   48.539                   48.705                   24.842                   27.998                   39.240                   40.755                   41.549                   41.727                   22.838                   24.402                   29.145                   29.632                   29.862                   29.898
12.000                   3.0000                   3.0000                   1.1000                   10000                    1000.0                   20.000                   63.167                   80.680                   127.67                   132.24                   134.59                   135.28                   63.194                   80.657                   128.13                   132.99                   135.54                   136.31                   63.127                   80.544                   127.62                   132.33                   134.88                   135.67                   63.071                   80.519                   127.79                   132.65                   135.19                   135.97                   60.382                   76.412                   118.51                   122.68                   125.13                   125.89                   57.821                   72.619                   111.60                   115.57                   117.96                   118.69                   50.180                   62.121                   93.929                   97.117                   98.978                   99.545                   33.843                   39.456                   54.640                   56.300                   57.098                   57.254                   28.955                   33.212                   48.089                   50.235                   51.326                   51.561                   25.491                   27.606                   33.506                   34.062                   34.307                   34.337
12.000                   3.0000                   3.0000                   1.1000                   10000                    1000.0                   25.000                   82.407                   101.22                   149.95                   154.56                   157.00                   157.75                   82.203                   100.80                   149.82                   154.84                   157.49                   158.28                   82.241                   100.85                   149.16                   153.84                   156.47                   157.29                   82.042                   100.65                   149.16                   154.04                   156.67                   157.48                   78.052                   95.164                   138.94                   143.24                   145.73                   146.49                   74.112                   89.860                   130.24                   134.32                   136.79                   137.54                   63.157                   75.861                   108.61                   111.87                   113.77                   114.34                   40.576                   46.582                   61.542                   63.024                   63.722                   63.872                   33.984                   38.999                   56.400                   59.030                   60.360                   60.623                   29.063                   31.612                   38.529                   39.221                   39.569                   39.611
12.000                   3.0000                   3.0000                   1.1000                   10000                    1000.0                   30.000                   101.93                   121.82                   172.09                   176.77                   179.32                   180.12                   101.51                   121.06                   171.47                   176.64                   179.39                   180.20                   101.69                   121.32                   170.86                   175.54                   178.26                   179.10                   101.31                   120.89                   170.57                   175.50                   178.21                   179.05                   96.026                   114.06                   159.41                   163.83                   166.36                   167.14                   90.677                   107.24                   148.94                   153.13                   155.68                   156.46                   76.353                   89.692                   123.31                   126.65                   128.59                   129.18                   47.556                   53.898                   68.760                   70.110                   70.730                   70.876                   39.277                   44.983                   64.685                   67.745                   69.266                   69.553                   32.911                   35.851                   43.641                   44.450                   44.885                   44.941
12.000                   3.0000                   3.0000                   1.1000                   10000                    1000.0                   35.000                   122.57                   142.66                   193.66                   198.55                   201.28                   202.14                   121.96                   141.73                   192.97                   198.26                   201.11                   201.94                   122.43                   142.42                   193.12                   197.96                   200.77                   201.64                   121.73                   141.56                   192.16                   197.21                   199.99                   200.85                   115.17                   133.53                   180.06                   184.59                   187.16                   187.95                   108.30                   125.14                   167.86                   172.17                   174.82                   175.64                   90.389                   103.88                   138.12                   141.55                   143.55                   144.16                   55.491                   61.951                   77.196                   78.600                   79.220                   79.371                   45.590                   51.732                   72.871                   76.148                   77.681                   77.972                   37.822                   40.990                   49.103                   49.954                   50.407                   50.484
12.000                   3.0000                   3.0000                   1.1000                   10000                    1000.0                   40.000                   143.19                   163.50                   215.28                   220.37                   223.28                   224.19                   142.44                   162.45                   214.59                   220.02                   222.96                   223.82                   143.18                   163.53                   215.45                   220.45                   223.35                   224.24                   142.15                   162.26                   213.81                   218.99                   221.84                   222.71                   134.38                   153.07                   200.77                   205.40                   208.02                   208.83                   126.02                   143.16                   186.96                   191.41                   194.15                   195.00                   104.45                   118.10                   152.97                   156.49                   158.55                   159.17                   63.514                   70.086                   85.711                   87.170                   87.795                   87.952                   51.969                   58.485                   80.795                   84.239                   85.764                   86.054                   42.878                   46.250                   54.664                   55.558                   56.031                   56.129
12.000                   3.0000                   3.0000                   1.1000                   10000                    1000.0                   45.000                   163.75                   184.33                   237.22                   242.48                   245.51                   246.45                   163.06                   183.45                   236.99                   242.57                   245.63                   246.50                   164.00                   184.74                   238.14                   243.34                   246.32                   247.22                   162.64                   183.09                   235.81                   241.12                   244.06                   244.95                   153.93                   172.97                   221.83                   226.57                   229.23                   230.04                   144.31                   161.86                   207.12                   211.74                   214.59                   215.46                   118.69                   132.52                   168.05                   171.64                   173.76                   174.40                   72.054                   78.695                   94.692                   96.207                   96.869                   97.041                   58.738                   65.263                   87.174                   90.491                   91.897                   92.150                   48.778                   52.223                   60.812                   61.746                   62.258                   62.372
12.000                   3.0000                   3.0000                   1.1000                   10000                    1000.0                   50.000                   184.31                   205.16                   259.16                   264.59                   267.74                   268.71                   183.68                   204.44                   259.39                   265.13                   268.31                   269.19                   184.82                   205.94                   260.83                   266.24                   269.28                   270.21                   183.12                   203.92                   257.81                   263.25                   266.28                   267.20                   173.48                   192.88                   242.90                   247.74                   250.43                   251.25                   162.60                   180.57                   227.29                   232.08                   235.03                   235.92                   132.92                   146.95                   183.12                   186.79                   188.97                   189.63                   80.594                   87.305                   103.67                   105.24                   105.94                   106.13                   65.507                   72.042                   93.553                   96.744                   98.030                   98.246                   54.678                   58.195                   66.959                   67.933                   68.485                   68.616
12.000                   3.0000                   3.0000                   1.1000                   10000                    1000.0                   55.000                   204.87                   225.99                   281.10                   286.71                   289.97                   290.97                   204.30                   225.43                   281.79                   287.69                   290.98                   291.87                   205.65                   227.15                   283.52                   289.13                   292.25                   293.19                   203.60                   224.74                   279.81                   285.39                   288.51                   289.44                   193.03                   212.78                   263.97                   268.91                   271.63                   272.46                   180.88                   199.28                   247.45                   252.41                   255.47                   256.38                   147.16                   161.37                   198.19                   201.94                   204.19                   204.86                   89.134                   95.915                   112.65                   114.28                   115.02                   115.22                   72.276                   78.821                   99.932                   103.00                   104.16                   104.34                   60.579                   64.167                   73.107                   74.121                   74.712                   74.860
12.000                   3.0000                   3.0000                   1.1000                   10000                    1000.0                   60.000                   225.39                   246.79                   303.00                   308.77                   312.15                   313.18                   224.89                   246.40                   304.13                   310.18                   313.58                   314.49                   226.43                   248.32                   306.14                   311.95                   315.15                   316.10                   224.06                   245.54                   301.76                   307.47                   310.68                   311.63                   212.57                   232.67                   285.03                   290.07                   292.83                   293.67                   199.16                   217.98                   267.60                   272.73                   275.89                   276.83                   161.38                   175.79                   213.25                   217.09                   219.39                   220.09                   97.635                   104.48                   121.55                   123.23                   124.00                   124.21                   78.985                   85.519                   106.15                   109.08                   110.12                   110.27                   66.434                   70.081                   79.154                   80.202                   80.827                   80.991
12.000                   3.0000                   3.0000                   1.1000                   10000                    1000.0                   65.000                   244.79                   266.41                   323.23                   329.07                   332.54                   333.58                   244.33                   266.05                   324.07                   330.12                   333.61                   334.55                   245.86                   267.90                   326.02                   331.90                   335.23                   336.21                   243.33                   265.01                   321.82                   327.61                   330.94                   331.92                   231.63                   252.10                   305.62                   310.88                   313.86                   314.75                   217.23                   236.47                   287.26                   292.52                   295.76                   296.71                   175.34                   189.97                   228.03                   231.93                   234.29                   235.00                   104.62                   111.12                   127.08                   128.63                   129.39                   129.61                   83.336                   89.051                   106.20                   108.53                   109.39                   109.52                   70.521                   73.691                   81.233                   82.065                   82.561                   82.692
12.000                   3.0000                   3.0000                   1.1000                   10000                    1000.0                   70.000                   264.18                   286.02                   343.45                   349.37                   352.93                   353.97                   263.78                   285.71                   344.00                   350.06                   353.63                   354.62                   265.29                   287.49                   345.91                   351.85                   355.31                   356.32                   262.60                   284.49                   341.87                   347.75                   351.21                   352.21                   250.69                   271.53                   326.22                   331.69                   334.89                   335.83                   235.30                   254.96                   306.92                   312.31                   315.63                   316.60                   189.31                   204.14                   242.80                   246.77                   249.19                   249.92                   111.61                   117.76                   132.61                   134.04                   134.78                   135.01                   87.688                   92.583                   106.25                   107.98                   108.65                   108.77                   74.607                   77.301                   83.313                   83.929                   84.294                   84.393
12.000                   3.0000                   3.0000                   1.1000                   10000                    1000.0                   75.000                   283.58                   305.64                   363.68                   369.67                   373.32                   374.37                   283.22                   305.36                   363.93                   370.00                   373.66                   374.68                   284.72                   307.07                   365.79                   371.80                   375.40                   376.43                   281.87                   303.96                   361.93                   367.88                   371.47                   372.50                   269.75                   290.95                   346.81                   352.50                   355.92                   356.91                   253.37                   273.46                   326.58                   332.09                   335.50                   336.49                   203.27                   218.32                   257.58                   261.61                   264.08                   264.83                   118.60                   124.40                   138.15                   139.44                   140.17                   140.40                   92.040                   96.114                   106.29                   107.43                   107.92                   108.03                   78.694                   80.912                   85.393                   85.793                   86.028                   86.094