% Model:              batchmodel_COIL_N_12_COIL_kr_2.25_COIL_kh_2_COIL_kturn_1.7_FUNZ_freq_6000_FUNZ_I_eff_4000.mph
% Version:            COMSOL 5.6.0.280
% Date:               Feb 1 2022, 21:16
% Table:              Tabella 1 - GRIGLIA_T
% COIL_N                 COIL_kr                  COIL_kh                  COIL_kturn               FUNZ_freq                FUNZ_I_eff               Time (s)                 Temperatura (degC), Punto: (0, 0)Temperatura (degC), Punto: (15, 0)Temperatura (degC), Punto: (27.483, 0)Temperatura (degC), Punto: (28.742, 0)Temperatura (degC), Punto: (29.497, 0)Temperatura (degC), Punto: (29.748, 0)Temperatura (degC), Punto: (0, 62.5)Temperatura (degC), Punto: (15, 62.5)Temperatura (degC), Punto: (27.483, 62.5)Temperatura (degC), Punto: (28.742, 62.5)Temperatura (degC), Punto: (29.497, 62.5)Temperatura (degC), Punto: (29.748, 62.5)Temperatura (degC), Punto: (0, 125)Temperatura (degC), Punto: (15, 125)Temperatura (degC), Punto: (27.483, 125)Temperatura (degC), Punto: (28.742, 125)Temperatura (degC), Punto: (29.497, 125)Temperatura (degC), Punto: (29.748, 125)Temperatura (degC), Punto: (0, 187.5)Temperatura (degC), Punto: (15, 187.5)Temperatura (degC), Punto: (27.483, 187.5)Temperatura (degC), Punto: (28.742, 187.5)Temperatura (degC), Punto: (29.497, 187.5)Temperatura (degC), Punto: (29.748, 187.5)Temperatura (degC), Punto: (0, 250)Temperatura (degC), Punto: (15, 250)Temperatura (degC), Punto: (27.483, 250)Temperatura (degC), Punto: (28.742, 250)Temperatura (degC), Punto: (29.497, 250)Temperatura (degC), Punto: (29.748, 250)Temperatura (degC), Punto: (0, 312.5)Temperatura (degC), Punto: (15, 312.5)Temperatura (degC), Punto: (27.483, 312.5)Temperatura (degC), Punto: (28.742, 312.5)Temperatura (degC), Punto: (29.497, 312.5)Temperatura (degC), Punto: (29.748, 312.5)Temperatura (degC), Punto: (0, 375)Temperatura (degC), Punto: (15, 375)Temperatura (degC), Punto: (27.483, 375)Temperatura (degC), Punto: (28.742, 375)Temperatura (degC), Punto: (29.497, 375)Temperatura (degC), Punto: (29.748, 375)Temperatura (degC), Punto: (0, 437.5)Temperatura (degC), Punto: (15, 437.5)Temperatura (degC), Punto: (27.483, 437.5)Temperatura (degC), Punto: (28.742, 437.5)Temperatura (degC), Punto: (29.497, 437.5)Temperatura (degC), Punto: (29.748, 437.5)Temperatura (degC), Punto: (0, 468.75)Temperatura (degC), Punto: (15, 468.75)Temperatura (degC), Punto: (27.483, 468.75)Temperatura (degC), Punto: (28.742, 468.75)Temperatura (degC), Punto: (29.497, 468.75)Temperatura (degC), Punto: (29.748, 468.75)Temperatura (degC), Punto: (0, 492.19)Temperatura (degC), Punto: (15, 492.19)Temperatura (degC), Punto: (27.483, 492.19)Temperatura (degC), Punto: (28.742, 492.19)Temperatura (degC), Punto: (29.497, 492.19)Temperatura (degC), Punto: (29.748, 492.19)
12.000                   2.2500                   2.0000                   1.7000                   6000.0                   4000.0                   0.0000                   20.000                   20.000                   20.000                   20.000                   20.108                   20.270                   20.000                   20.000                   20.000                   20.000                   20.109                   20.271                   20.000                   20.000                   20.000                   20.000                   20.110                   20.274                   20.000                   20.000                   20.000                   20.000                   20.112                   20.278                   20.000                   20.000                   20.000                   20.000                   20.114                   20.281                   20.000                   20.000                   20.000                   20.000                   20.116                   20.284                   20.000                   20.000                   20.000                   20.000                   20.104                   20.262                   20.000                   20.000                   20.000                   20.000                   20.006                   20.054                   20.000                   20.000                   20.000                   20.000                   20.001                   20.015                   20.000                   20.000                   20.000                   20.000                   20.000                   20.004
12.000                   2.2500                   2.0000                   1.7000                   6000.0                   4000.0                   5.0000                   29.411                   65.665                   271.90                   315.77                   343.02                   349.04                   29.531                   66.389                   273.21                   316.15                   342.74                   348.64                   29.334                   65.492                   271.00                   314.51                   341.34                   347.36                   29.537                   66.586                   275.33                   318.90                   345.43                   351.40                   29.585                   66.741                   274.03                   317.00                   343.35                   349.31                   29.584                   66.807                   274.68                   317.75                   344.18                   350.21                   28.518                   61.518                   240.65                   276.34                   299.09                   304.30                   21.770                   28.002                   58.055                   63.919                   67.679                   68.854                   20.590                   22.654                   34.187                   36.952                   38.791                   39.464                   20.363                   20.932                   22.440                   23.439                   23.715                   23.819
12.000                   2.2500                   2.0000                   1.7000                   6000.0                   4000.0                   10.000                   92.660                   177.27                   495.79                   558.74                   593.93                   601.12                   93.105                   177.98                   497.16                   560.25                   595.47                   602.67                   92.474                   177.21                   497.30                   560.64                   596.02                   603.22                   93.267                   178.68                   501.19                   565.18                   600.76                   608.00                   93.372                   179.03                   503.82                   568.35                   604.08                   611.35                   93.196                   178.73                   503.29                   567.91                   603.81                   611.09                   83.571                   158.44                   435.46                   488.96                   519.43                   525.83                   34.720                   51.628                   105.64                   113.71                   118.79                   120.30                   25.056                   30.969                   49.560                   52.230                   53.852                   54.386                   22.831                   26.475                   39.157                   40.690                   41.391                   41.616
12.000                   2.2500                   2.0000                   1.7000                   6000.0                   4000.0                   15.000                   188.38                   300.91                   692.60                   773.38                   816.20                   824.45                   188.80                   301.38                   694.85                   775.99                   819.41                   827.82                   188.19                   301.08                   697.65                   781.23                   827.12                   835.82                   189.17                   302.38                   699.27                   783.01                   828.51                   837.12                   189.31                   302.72                   698.99                   781.67                   825.91                   834.44                   188.84                   302.36                   702.40                   787.76                   834.04                   842.80                   167.47                   268.36                   615.82                   682.25                   718.33                   725.67                   59.140                   85.255                   160.76                   171.29                   177.04                   178.62                   34.126                   43.598                   70.572                   74.364                   76.242                   76.826                   29.281                   37.458                   64.066                   67.551                   68.846                   69.228
12.000                   2.2500                   2.0000                   1.7000                   6000.0                   4000.0                   20.000                   292.44                   416.56                   866.31                   963.83                   1006.6                   1013.7                   292.79                   417.01                   866.09                   962.75                   1005.2                   1012.3                   292.45                   417.26                   867.02                   961.75                   1003.2                   1010.1                   293.30                   418.57                   882.63                   980.01                   1020.9                   1027.5                   293.42                   418.74                   875.61                   971.18                   1012.4                   1019.2                   292.89                   419.10                   909.96                   1011.9                   1050.7                   1056.4                   261.53                   374.36                   750.36                   831.67                   874.02                   881.77                   93.794                   124.45                   200.36                   210.60                   216.91                   218.68                   48.275                   59.447                   84.487                   87.565                   89.451                   90.055                   39.616                   47.911                   62.541                   63.753                   64.448                   64.668
12.000                   2.2500                   2.0000                   1.7000                   6000.0                   4000.0                   25.000                   389.18                   517.18                   1072.9                   1132.5                   1146.6                   1147.6                   389.25                   514.59                   946.94                   1018.4                   1046.7                   1050.9                   389.52                   516.59                   921.44                   976.11                   999.90                   1003.9                   390.61                   520.83                   1020.2                   1079.6                   1095.7                   1097.3                   390.65                   518.93                   921.07                   971.42                   993.15                   996.77                   390.68                   523.82                   1053.8                   1106.0                   1118.8                   1119.8                   350.69                   467.13                   854.14                   930.91                   966.58                   972.71                   131.31                   163.22                   238.69                   248.73                   254.91                   256.63                   64.187                   75.245                   98.990                   101.92                   103.71                   104.29                   49.456                   55.801                   66.559                   67.611                   68.229                   68.430
12.000                   2.2500                   2.0000                   1.7000                   6000.0                   4000.0                   30.000                   472.20                   600.00                   1122.4                   1154.2                   1160.5                   1160.4                   471.06                   591.64                   1064.7                   1112.6                   1124.1                   1124.9                   472.36                   595.03                   985.77                   1029.0                   1044.3                   1046.3                   474.34                   602.31                   1061.9                   1098.4                   1107.3                   1107.8                   474.05                   596.91                   952.12                   989.11                   1004.7                   1007.2                   475.27                   607.39                   1092.3                   1123.9                   1130.8                   1130.9                   428.64                   542.81                   931.23                   995.48                   1022.9                   1027.2                   168.54                   200.47                   276.25                   286.44                   292.72                   294.44                   80.539                   91.212                   114.49                   117.43                   119.24                   119.82                   58.633                   63.907                   73.441                   74.453                   75.057                   75.256
12.000                   2.2500                   2.0000                   1.7000                   6000.0                   4000.0                   35.000                   543.24                   666.16                   1127.8                   1149.2                   1152.8                   1152.4                   540.85                   655.04                   1092.7                   1122.1                   1128.2                   1128.2                   542.78                   657.99                   1042.9                   1075.5                   1084.3                   1084.9                   545.61                   665.57                   1070.7                   1097.6                   1103.8                   1103.9                   544.98                   658.60                   989.44                   1020.1                   1031.4                   1032.9                   547.31                   672.97                   1111.3                   1133.0                   1136.9                   1136.6                   495.88                   606.54                   996.89                   1045.9                   1061.8                   1063.6                   204.23                   236.00                   311.96                   322.24                   328.57                   330.27                   97.112                   107.55                   130.76                   133.72                   135.55                   136.13                   68.057                   72.844                   81.893                   82.891                   83.490                   83.687
12.000                   2.2500                   2.0000                   1.7000                   6000.0                   4000.0                   40.000                   603.11                   718.43                   1122.5                   1138.6                   1140.9                   1140.3                   600.03                   706.44                   1089.7                   1111.0                   1115.1                   1114.8                   601.96                   708.82                   1075.6                   1098.7                   1103.8                   1103.8                   605.22                   715.30                   1077.9                   1098.5                   1102.8                   1102.6                   604.45                   708.45                   1028.1                   1053.0                   1060.4                   1061.0                   607.51                   725.07                   1118.7                   1134.5                   1136.7                   1136.2                   554.67                   661.06                   1051.7                   1086.7                   1095.7                   1096.2                   238.08                   269.74                   346.06                   356.48                   362.88                   364.58                   113.91                   124.28                   147.64                   150.65                   152.51                   153.10                   78.117                   82.687                   91.538                   92.532                   93.131                   93.328
12.000                   2.2500                   2.0000                   1.7000                   6000.0                   4000.0                   45.000                   649.71                   760.83                   1114.0                   1127.0                   1128.5                   1127.8                   646.58                   748.54                   1088.0                   1104.5                   1107.3                   1106.9                   648.17                   750.86                   1089.0                   1106.2                   1109.3                   1108.9                   651.46                   757.06                   1085.8                   1101.6                   1104.3                   1103.9                   650.73                   750.70                   1059.6                   1078.3                   1082.7                   1082.6                   654.01                   768.74                   1118.3                   1130.5                   1131.8                   1131.1                   603.48                   706.34                   1085.0                   1109.5                   1114.8                   1114.7                   269.55                   301.10                   377.71                   388.22                   394.66                   396.35                   130.97                   141.36                   164.94                   168.00                   169.88                   170.48                   89.097                   93.578                   102.35                   103.35                   103.94                   104.14
12.000                   2.2500                   2.0000                   1.7000                   6000.0                   4000.0                   50.000                   688.80                   800.02                   1107.4                   1117.9                   1118.8                   1118.1                   685.94                   788.16                   1091.4                   1104.0                   1105.7                   1105.1                   687.10                   790.45                   1095.3                   1107.9                   1109.6                   1109.0                   690.24                   797.08                   1094.7                   1106.4                   1107.9                   1107.2                   689.62                   791.52                   1084.3                   1097.4                   1099.4                   1098.9                   692.80                   809.92                   1115.8                   1125.3                   1125.9                   1125.0                   646.34                   746.77                   1106.8                   1123.9                   1126.7                   1126.2                   299.54                   330.98                   407.78                   418.33                   424.78                   426.45                   148.15                   158.59                   182.41                   185.51                   187.43                   188.04                   100.63                   105.07                   113.81                   114.80                   115.40                   115.60
12.000                   2.2500                   2.0000                   1.7000                   6000.0                   4000.0                   55.000                   715.31                   838.63                   1108.9                   1117.4                   1117.7                   1116.9                   712.92                   829.26                   1099.3                   1109.0                   1109.8                   1109.0                   713.77                   831.09                   1102.3                   1111.9                   1112.7                   1111.9                   716.50                   838.10                   1103.8                   1112.8                   1113.3                   1112.6                   716.03                   834.41                   1099.2                   1108.8                   1109.6                   1108.8                   718.81                   849.20                   1118.0                   1125.6                   1125.6                   1124.7                   679.92                   786.51                   1116.6                   1129.4                   1130.9                   1130.2                   327.15                   358.49                   435.25                   445.81                   452.25                   453.90                   165.38                   175.88                   199.96                   203.10                   205.05                   205.66                   112.97                   117.40                   126.17                   127.17                   127.77                   127.97
12.000                   2.2500                   2.0000                   1.7000                   6000.0                   4000.0                   60.000                   740.79                   876.17                   1112.7                   1119.3                   1119.1                   1118.2                   738.54                   869.36                   1107.6                   1114.8                   1114.8                   1113.9                   739.22                   870.68                   1109.8                   1116.9                   1116.9                   1116.0                   742.31                   877.84                   1112.6                   1119.3                   1119.1                   1118.1                   741.94                   875.78                   1111.5                   1118.3                   1118.2                   1117.3                   744.78                   886.87                   1121.9                   1127.8                   1127.3                   1126.3                   708.33                   826.09                   1123.9                   1133.4                   1133.9                   1133.1                   353.52                   384.72                   461.33                   471.89                   478.32                   479.95                   182.53                   193.10                   217.44                   220.64                   222.61                   223.23                   125.68                   130.12                   138.92                   139.92                   140.53                   140.73
12.000                   2.2500                   2.0000                   1.7000                   6000.0                   4000.0                   65.000                   768.29                   912.38                   1118.5                   1123.4                   1122.7                   1121.7                   766.01                   907.98                   1116.0                   1121.2                   1120.6                   1119.6                   766.59                   908.80                   1117.7                   1122.8                   1122.2                   1121.2                   770.59                   915.85                   1121.0                   1125.8                   1125.0                   1124.0                   770.28                   915.11                   1121.6                   1126.4                   1125.6                   1124.6                   773.40                   922.69                   1127.4                   1131.8                   1130.8                   1129.8                   734.05                   864.73                   1129.3                   1136.4                   1136.1                   1135.2                   378.44                   409.47                   485.82                   496.36                   502.78                   504.39                   199.55                   210.19                   234.80                   238.04                   240.05                   240.67                   138.77                   143.23                   152.07                   153.07                   153.68                   153.88
12.000                   2.2500                   2.0000                   1.7000                   6000.0                   4000.0                   70.000                   813.53                   944.98                   1125.9                   1129.6                   1128.4                   1127.3                   811.77                   941.85                   1124.3                   1128.1                   1127.0                   1126.0                   812.07                   942.43                   1125.7                   1129.6                   1128.5                   1127.4                   816.72                   948.91                   1129.1                   1132.6                   1131.4                   1130.3                   816.54                   948.63                   1129.9                   1133.5                   1132.3                   1131.2                   819.14                   954.38                   1134.5                   1137.8                   1136.4                   1135.3                   767.04                   898.24                   1133.6                   1139.3                   1138.6                   1137.6                   400.08                   430.81                   506.70                   517.22                   523.61                   525.21                   216.06                   226.77                   251.62                   254.90                   256.94                   257.57                   152.48                   156.95                   165.82                   166.83                   167.44                   167.64
12.000                   2.2500                   2.0000                   1.7000                   6000.0                   4000.0                   75.000                   858.77                   977.59                   1133.3                   1135.8                   1134.2                   1133.0                   857.53                   975.71                   1132.5                   1135.0                   1133.5                   1132.3                   857.55                   976.06                   1133.7                   1136.3                   1134.7                   1133.6                   862.84                   981.97                   1137.1                   1139.4                   1137.8                   1136.6                   862.81                   982.14                   1138.2                   1140.6                   1139.0                   1137.8                   864.89                   986.08                   1141.6                   1143.8                   1142.0                   1140.9                   800.03                   931.76                   1137.9                   1142.2                   1141.1                   1140.0                   421.72                   452.16                   527.59                   538.08                   544.45                   546.03                   232.58                   243.35                   268.44                   271.77                   273.82                   274.46                   166.18                   170.68                   179.57                   180.59                   181.19                   181.39