% Model:              batchmodel_COIL_N_12_COIL_kr_3_COIL_kh_1_COIL_kturn_1.4_FUNZ_freq_6000_FUNZ_I_eff_1000.mph
% Version:            COMSOL 5.6.0.280
% Date:               Feb 2 2022, 00:02
% Table:              Tabella 1 - GRIGLIA_T
% COIL_N                 COIL_kr                  COIL_kh                  COIL_kturn               FUNZ_freq                FUNZ_I_eff               Time (s)                 Temperatura (degC), Punto: (0, 0)Temperatura (degC), Punto: (15, 0)Temperatura (degC), Punto: (27.483, 0)Temperatura (degC), Punto: (28.742, 0)Temperatura (degC), Punto: (29.497, 0)Temperatura (degC), Punto: (29.748, 0)Temperatura (degC), Punto: (0, 62.5)Temperatura (degC), Punto: (15, 62.5)Temperatura (degC), Punto: (27.483, 62.5)Temperatura (degC), Punto: (28.742, 62.5)Temperatura (degC), Punto: (29.497, 62.5)Temperatura (degC), Punto: (29.748, 62.5)Temperatura (degC), Punto: (0, 125)Temperatura (degC), Punto: (15, 125)Temperatura (degC), Punto: (27.483, 125)Temperatura (degC), Punto: (28.742, 125)Temperatura (degC), Punto: (29.497, 125)Temperatura (degC), Punto: (29.748, 125)Temperatura (degC), Punto: (0, 187.5)Temperatura (degC), Punto: (15, 187.5)Temperatura (degC), Punto: (27.483, 187.5)Temperatura (degC), Punto: (28.742, 187.5)Temperatura (degC), Punto: (29.497, 187.5)Temperatura (degC), Punto: (29.748, 187.5)Temperatura (degC), Punto: (0, 250)Temperatura (degC), Punto: (15, 250)Temperatura (degC), Punto: (27.483, 250)Temperatura (degC), Punto: (28.742, 250)Temperatura (degC), Punto: (29.497, 250)Temperatura (degC), Punto: (29.748, 250)Temperatura (degC), Punto: (0, 312.5)Temperatura (degC), Punto: (15, 312.5)Temperatura (degC), Punto: (27.483, 312.5)Temperatura (degC), Punto: (28.742, 312.5)Temperatura (degC), Punto: (29.497, 312.5)Temperatura (degC), Punto: (29.748, 312.5)Temperatura (degC), Punto: (0, 375)Temperatura (degC), Punto: (15, 375)Temperatura (degC), Punto: (27.483, 375)Temperatura (degC), Punto: (28.742, 375)Temperatura (degC), Punto: (29.497, 375)Temperatura (degC), Punto: (29.748, 375)Temperatura (degC), Punto: (0, 437.5)Temperatura (degC), Punto: (15, 437.5)Temperatura (degC), Punto: (27.483, 437.5)Temperatura (degC), Punto: (28.742, 437.5)Temperatura (degC), Punto: (29.497, 437.5)Temperatura (degC), Punto: (29.748, 437.5)Temperatura (degC), Punto: (0, 468.75)Temperatura (degC), Punto: (15, 468.75)Temperatura (degC), Punto: (27.483, 468.75)Temperatura (degC), Punto: (28.742, 468.75)Temperatura (degC), Punto: (29.497, 468.75)Temperatura (degC), Punto: (29.748, 468.75)Temperatura (degC), Punto: (0, 492.19)Temperatura (degC), Punto: (15, 492.19)Temperatura (degC), Punto: (27.483, 492.19)Temperatura (degC), Punto: (28.742, 492.19)Temperatura (degC), Punto: (29.497, 492.19)Temperatura (degC), Punto: (29.748, 492.19)
12.000                   3.0000                   1.0000                   1.4000                   6000.0                   1000.0                   0.0000                   20.000                   20.000                   20.000                   20.000                   20.021                   20.099                   20.000                   20.000                   20.000                   20.000                   20.021                   20.099                   20.000                   20.000                   20.000                   20.000                   20.019                   20.091                   20.000                   20.000                   20.000                   20.000                   20.004                   20.040                   20.000                   20.000                   20.000                   20.000                   20.000                   20.005                   20.000                   20.000                   20.000                   20.000                   20.000                   20.001                   20.000                   20.000                   20.000                   20.000                   20.000                   20.000                   20.000                   20.000                   20.000                   20.000                   20.000                   20.000                   20.000                   20.000                   20.000                   20.000                   20.000                   20.000                   20.000                   20.000                   20.000                   20.000                   20.000                   20.000
12.000                   3.0000                   1.0000                   1.4000                   6000.0                   1000.0                   5.0000                   23.431                   34.813                   94.437                   105.71                   112.96                   114.98                   23.396                   34.732                   94.086                   105.20                   112.25                   114.25                   23.304                   34.358                   91.756                   102.36                   108.84                   110.80                   21.855                   27.960                   58.678                   64.030                   66.922                   67.821                   20.673                   22.823                   33.307                   35.318                   36.199                   36.446                   20.297                   21.250                   25.927                   26.820                   27.365                   27.513                   20.184                   20.747                   23.264                   23.614                   23.754                   23.771                   20.140                   20.611                   22.903                   23.294                   23.528                   23.554                   20.038                   20.140                   20.504                   20.555                   20.587                   20.598                   20.009                   20.034                   20.139                   20.156                   20.167                   20.171
12.000                   3.0000                   1.0000                   1.4000                   6000.0                   1000.0                   10.000                   43.887                   69.618                   149.50                   161.84                   169.60                   171.84                   43.739                   69.346                   148.73                   160.99                   168.70                   170.91                   42.729                   67.210                   141.17                   152.14                   159.01                   160.92                   32.464                   45.475                   82.675                   87.748                   90.756                   91.682                   24.457                   28.864                   40.414                   41.829                   42.528                   42.735                   22.009                   24.000                   28.879                   29.310                   29.607                   29.721                   21.246                   22.436                   25.218                   25.460                   25.562                   25.596                   20.864                   21.745                   23.953                   24.176                   24.248                   24.259                   20.284                   20.517                   20.984                   21.023                   21.043                   21.050                   20.073                   20.130                   20.267                   20.284                   20.295                   20.299
12.000                   3.0000                   1.0000                   1.4000                   6000.0                   1000.0                   15.000                   76.118                   109.97                   202.39                   215.92                   224.02                   226.25                   75.780                   109.51                   202.18                   215.89                   224.09                   226.34                   72.457                   103.70                   188.52                   201.18                   208.41                   210.32                   48.972                   66.242                   113.87                   120.42                   123.38                   124.26                   30.412                   36.690                   56.945                   60.698                   61.938                   62.016                   24.811                   27.918                   39.436                   41.900                   43.402                   43.651                   23.054                   25.137                   32.676                   33.797                   34.271                   34.389                   22.010                   23.503                   29.824                   31.210                   31.920                   31.964                   20.702                   21.050                   21.809                   21.894                   21.947                   21.964                   20.196                   20.273                   20.440                   20.461                   20.474                   20.479
12.000                   3.0000                   1.0000                   1.4000                   6000.0                   1000.0                   20.000                   114.80                   153.40                   255.22                   269.74                   278.22                   280.48                   114.39                   153.15                   256.64                   271.84                   280.92                   283.25                   107.77                   143.42                   239.13                   253.57                   261.98                   264.23                   70.261                   91.217                   147.45                   155.06                   158.52                   159.54                   39.248                   47.967                   74.751                   79.284                   80.954                   81.045                   29.499                   34.224                   49.591                   52.279                   53.762                   53.944                   26.519                   30.156                   41.506                   42.920                   43.449                   43.582                   24.167                   26.742                   36.197                   37.985                   38.851                   38.932                   21.455                   22.012                   23.116                   23.211                   23.261                   23.276                   20.415                   20.513                   20.712                   20.735                   20.750                   20.754
12.000                   3.0000                   1.0000                   1.4000                   6000.0                   1000.0                   25.000                   156.45                   198.47                   308.97                   324.80                   333.99                   336.34                   156.04                   198.41                   311.00                   327.63                   337.59                   340.00                   145.91                   185.06                   290.31                   306.30                   315.98                   318.48                   94.748                   118.47                   180.11                   188.20                   192.03                   193.13                   50.583                   61.290                   91.368                   95.873                   97.555                   97.679                   35.934                   41.939                   58.698                   61.138                   62.430                   62.560                   31.501                   36.394                   49.403                   50.807                   51.283                   51.398                   27.301                   30.827                   41.903                   43.770                   44.647                   44.747                   22.614                   23.390                   24.788                   24.885                   24.932                   24.945                   20.779                   20.900                   21.125                   21.149                   21.164                   21.169
12.000                   3.0000                   1.0000                   1.4000                   6000.0                   1000.0                   30.000                   199.26                   243.97                   362.32                   379.64                   389.98                   392.48                   198.86                   244.05                   364.96                   383.14                   394.03                   396.50                   185.27                   227.13                   339.88                   357.02                   367.69                   370.37                   120.56                   145.82                   208.86                   216.79                   220.59                   221.67                   63.352                   75.196                   106.37                   110.64                   112.17                   112.30                   43.408                   50.060                   66.561                   68.592                   69.627                   69.729                   37.289                   42.808                   56.005                   57.311                   57.726                   57.825                   31.000                   35.108                   46.885                   48.795                   49.644                   49.750                   24.098                   25.035                   26.589                   26.675                   26.709                   26.718                   21.309                   21.447                   21.688                   21.713                   21.728                   21.732
12.000                   3.0000                   1.0000                   1.4000                   6000.0                   1000.0                   35.000                   242.55                   289.94                   417.25                   436.30                   447.77                   450.45                   242.02                   289.80                   418.89                   438.48                   450.22                   452.85                   224.67                   268.61                   386.65                   404.44                   415.48                   418.19                   145.80                   171.07                   231.79                   239.37                   243.32                   244.44                   75.150                   86.301                   112.83                   116.12                   117.39                   117.57                   50.073                   56.133                   69.301                   70.684                   71.371                   71.452                   42.226                   47.211                   57.663                   58.585                   58.876                   58.944                   33.987                   37.707                   46.955                   48.296                   48.874                   48.951                   25.500                   26.394                   27.764                   27.832                   27.858                   27.864                   21.952                   22.092                   22.325                   22.347                   22.361                   22.365
12.000                   3.0000                   1.0000                   1.4000                   6000.0                   1000.0                   40.000                   286.22                   336.30                   473.43                   494.41                   507.00                   509.90                   285.44                   335.64                   472.80                   493.69                   506.21                   509.08                   264.10                   309.62                   431.19                   449.21                   460.15                   462.77                   170.57                   194.65                   250.07                   257.13                   261.37                   262.60                   86.173                   95.168                   112.45                   114.17                   115.10                   115.37                   56.091                   60.570                   67.945                   68.489                   68.756                   68.822                   46.481                   50.006                   55.370                   55.679                   55.793                   55.821                   36.404                   38.961                   43.097                   43.381                   43.493                   43.513                   26.836                   27.525                   28.438                   28.483                   28.503                   28.509                   22.685                   22.814                   23.019                   23.038                   23.049                   23.052
12.000                   3.0000                   1.0000                   1.4000                   6000.0                   1000.0                   45.000                   329.48                   382.37                   529.17                   551.90                   565.38                   568.42                   328.27                   380.99                   526.53                   548.83                   562.06                   565.08                   302.61                   349.77                   476.47                   495.43                   506.81                   509.46                   193.53                   216.55                   269.77                   276.75                   281.10                   282.31                   95.245                   102.55                   116.28                   117.74                   118.69                   119.00                   60.411                   63.577                   68.313                   68.655                   68.845                   68.913                   49.078                   51.351                   54.175                   54.295                   54.356                   54.372                   37.660                   39.251                   41.181                   41.214                   41.228                   41.236                   27.827                   28.306                   28.910                   28.945                   28.962                   28.968                   23.439                   23.553                   23.737                   23.756                   23.766                   23.770
12.000                   3.0000                   1.0000                   1.4000                   6000.0                   1000.0                   50.000                   372.24                   427.84                   583.94                   608.48                   622.90                   626.06                   370.55                   425.73                   579.49                   603.27                   617.22                   620.35                   340.59                   389.46                   522.08                   542.20                   554.17                   556.88                   215.67                   237.93                   290.20                   297.25                   301.68                   302.86                   103.60                   109.65                   121.78                   123.29                   124.34                   124.67                   64.035                   66.187                   69.469                   69.778                   69.972                   70.047                   50.982                   52.265                   53.568                   53.623                   53.665                   53.680                   38.473                   39.319                   40.076                   40.056                   40.059                   40.067                   28.661                   28.965                   29.350                   29.379                   29.396                   29.401                   24.189                   24.288                   24.457                   24.475                   24.486                   24.489
12.000                   3.0000                   1.0000                   1.4000                   6000.0                   1000.0                   55.000                   414.04                   472.04                   636.35                   662.77                   678.23                   681.53                   411.87                   469.26                   630.38                   655.62                   670.32                   673.56                   377.86                   428.48                   567.49                   588.87                   601.51                   604.30                   237.13                   258.94                   311.13                   318.31                   322.82                   323.98                   111.46                   116.74                   128.39                   130.01                   131.15                   131.51                   67.132                   68.608                   71.223                   71.563                   71.786                   71.866                   52.346                   52.942                   53.444                   53.488                   53.530                   53.545                   38.973                   39.326                   39.565                   39.561                   39.577                   39.590                   29.363                   29.541                   29.789                   29.816                   29.833                   29.838                   24.922                   25.008                   25.166                   25.184                   25.195                   25.198
12.000                   3.0000                   1.0000                   1.4000                   6000.0                   1000.0                   60.000                   451.79                   510.83                   677.64                   705.65                   722.18                   725.62                   449.24                   507.67                   671.01                   697.33                   712.71                   716.06                   412.58                   464.84                   609.48                   632.19                   645.54                   648.42                   257.35                   279.21                   331.87                   339.09                   343.59                   344.72                   118.76                   123.89                   135.61                   137.21                   138.29                   138.62                   69.538                   70.869                   73.496                   73.856                   74.090                   74.170                   52.929                   53.329                   53.721                   53.770                   53.809                   53.822                   39.108                   39.356                   39.658                   39.689                   39.716                   39.730                   29.854                   29.993                   30.211                   30.237                   30.254                   30.259                   25.587                   25.665                   25.816                   25.834                   25.845                   25.848
12.000                   3.0000                   1.0000                   1.4000                   6000.0                   1000.0                   65.000                   489.54                   549.63                   718.93                   748.53                   766.14                   769.70                   486.61                   546.07                   711.63                   739.04                   755.11                   758.55                   447.30                   501.20                   651.48                   675.50                   689.57                   692.55                   277.57                   299.49                   352.62                   359.87                   364.36                   365.45                   126.06                   131.05                   142.83                   144.41                   145.42                   145.74                   71.943                   73.130                   75.769                   76.148                   76.394                   76.474                   53.512                   53.716                   53.999                   54.052                   54.088                   54.099                   39.243                   39.385                   39.752                   39.817                   39.856                   39.869                   30.346                   30.444                   30.633                   30.658                   30.675                   30.680                   26.252                   26.323                   26.467                   26.484                   26.494                   26.498
12.000                   3.0000                   1.0000                   1.4000                   6000.0                   1000.0                   70.000                   525.91                   586.65                   760.88                   792.40                   810.95                   814.61                   522.66                   582.78                   752.75                   781.77                   798.52                   802.03                   480.99                   536.12                   690.55                   715.90                   730.73                   733.81                   297.67                   319.83                   373.99                   381.38                   385.92                   387.01                   133.39                   138.31                   150.25                   151.82                   152.80                   153.09                   74.310                   75.417                   78.116                   78.516                   78.772                   78.854                   54.033                   54.108                   54.350                   54.409                   54.444                   54.454                   39.371                   39.456                   39.927                   40.026                   40.079                   40.093                   30.811                   30.883                   31.053                   31.078                   31.095                   31.100                   26.895                   26.961                   27.098                   27.115                   27.125                   27.128
12.000                   3.0000                   1.0000                   1.4000                   6000.0                   1000.0                   75.000                   559.89                   620.63                   803.95                   837.97                   857.26                   860.93                   556.40                   616.55                   794.73                   826.24                   843.69                   847.23                   512.90                   568.55                   724.56                   751.27                   766.93                   770.11                   317.57                   340.30                   396.46                   404.16                   408.87                   410.00                   140.76                   145.76                   158.01                   159.61                   160.58                   160.86                   76.612                   77.750                   80.593                   81.011                   81.278                   81.364                   54.445                   54.510                   54.829                   54.897                   54.935                   54.945                   39.489                   39.599                   40.244                   40.376                   40.446                   40.462                   31.233                   31.300                   31.471                   31.497                   31.513                   31.518                   27.501                   27.563                   27.696                   27.713                   27.723                   27.726