% Model:              batchmodel_COIL_N_12_COIL_kr_2.25_COIL_kh_1_COIL_kturn_1.7_FUNZ_freq_2000_FUNZ_I_eff_2500.mph
% Version:            COMSOL 5.6.0.280
% Date:               Feb 1 2022, 18:26
% Table:              Tabella 1 - GRIGLIA_T
% COIL_N                 COIL_kr                  COIL_kh                  COIL_kturn               FUNZ_freq                FUNZ_I_eff               Time (s)                 Temperatura (degC), Punto: (0, 0)Temperatura (degC), Punto: (15, 0)Temperatura (degC), Punto: (25.641, 0)Temperatura (degC), Punto: (27.821, 0)Temperatura (degC), Punto: (29.128, 0)Temperatura (degC), Punto: (29.564, 0)Temperatura (degC), Punto: (0, 62.5)Temperatura (degC), Punto: (15, 62.5)Temperatura (degC), Punto: (25.641, 62.5)Temperatura (degC), Punto: (27.821, 62.5)Temperatura (degC), Punto: (29.128, 62.5)Temperatura (degC), Punto: (29.564, 62.5)Temperatura (degC), Punto: (0, 125)Temperatura (degC), Punto: (15, 125)Temperatura (degC), Punto: (25.641, 125)Temperatura (degC), Punto: (27.821, 125)Temperatura (degC), Punto: (29.128, 125)Temperatura (degC), Punto: (29.564, 125)Temperatura (degC), Punto: (0, 187.5)Temperatura (degC), Punto: (15, 187.5)Temperatura (degC), Punto: (25.641, 187.5)Temperatura (degC), Punto: (27.821, 187.5)Temperatura (degC), Punto: (29.128, 187.5)Temperatura (degC), Punto: (29.564, 187.5)Temperatura (degC), Punto: (0, 250)Temperatura (degC), Punto: (15, 250)Temperatura (degC), Punto: (25.641, 250)Temperatura (degC), Punto: (27.821, 250)Temperatura (degC), Punto: (29.128, 250)Temperatura (degC), Punto: (29.564, 250)Temperatura (degC), Punto: (0, 312.5)Temperatura (degC), Punto: (15, 312.5)Temperatura (degC), Punto: (25.641, 312.5)Temperatura (degC), Punto: (27.821, 312.5)Temperatura (degC), Punto: (29.128, 312.5)Temperatura (degC), Punto: (29.564, 312.5)Temperatura (degC), Punto: (0, 375)Temperatura (degC), Punto: (15, 375)Temperatura (degC), Punto: (25.641, 375)Temperatura (degC), Punto: (27.821, 375)Temperatura (degC), Punto: (29.128, 375)Temperatura (degC), Punto: (29.564, 375)Temperatura (degC), Punto: (0, 437.5)Temperatura (degC), Punto: (15, 437.5)Temperatura (degC), Punto: (25.641, 437.5)Temperatura (degC), Punto: (27.821, 437.5)Temperatura (degC), Punto: (29.128, 437.5)Temperatura (degC), Punto: (29.564, 437.5)Temperatura (degC), Punto: (0, 468.75)Temperatura (degC), Punto: (15, 468.75)Temperatura (degC), Punto: (25.641, 468.75)Temperatura (degC), Punto: (27.821, 468.75)Temperatura (degC), Punto: (29.128, 468.75)Temperatura (degC), Punto: (29.564, 468.75)Temperatura (degC), Punto: (0, 492.19)Temperatura (degC), Punto: (15, 492.19)Temperatura (degC), Punto: (25.641, 492.19)Temperatura (degC), Punto: (27.821, 492.19)Temperatura (degC), Punto: (29.128, 492.19)Temperatura (degC), Punto: (29.564, 492.19)
12.000                   2.2500                   1.0000                   1.7000                   2000.0                   2500.0                   0.0000                   20.000                   20.000                   20.000                   20.000                   20.048                   20.111                   20.000                   20.000                   20.000                   20.000                   20.048                   20.111                   20.000                   20.000                   20.000                   20.000                   20.047                   20.111                   20.000                   20.000                   20.000                   20.000                   20.035                   20.089                   20.000                   20.000                   20.000                   20.000                   20.001                   20.015                   20.000                   20.000                   20.000                   20.000                   20.000                   20.001                   20.000                   20.000                   20.000                   20.000                   20.000                   20.000                   20.000                   20.000                   20.000                   20.000                   20.000                   20.000                   20.000                   20.000                   20.000                   20.000                   20.000                   20.000                   20.000                   20.000                   20.000                   20.000                   20.000                   20.000
12.000                   2.2500                   1.0000                   1.7000                   2000.0                   2500.0                   5.0000                   28.726                   52.946                   149.90                   187.95                   212.82                   218.75                   28.745                   53.054                   150.56                   188.87                   213.56                   219.47                   28.824                   53.300                   150.78                   188.68                   213.46                   219.45                   26.889                   46.221                   124.07                   153.33                   172.39                   177.22                   21.573                   26.002                   45.307                   53.109                   57.494                   58.741                   20.424                   21.662                   27.108                   29.252                   30.332                   30.532                   20.220                   20.893                   24.266                   25.789                   26.807                   27.104                   20.092                   20.364                   21.684                   22.271                   22.600                   22.632                   20.048                   20.209                   21.046                   21.403                   21.607                   21.642                   20.023                   20.090                   20.451                   20.624                   20.744                   20.772
12.000                   2.2500                   1.0000                   1.7000                   2000.0                   2500.0                   10.000                   70.884                   126.02                   271.87                   321.50                   351.59                   358.15                   71.025                   126.32                   272.26                   321.73                   352.37                   359.05                   71.369                   126.86                   272.95                   322.53                   353.29                   359.89                   60.022                   103.59                   215.64                   251.77                   274.43                   279.77                   29.958                   40.633                   66.936                   74.674                   78.843                   79.967                   23.000                   26.509                   35.477                   38.063                   39.461                   39.752                   21.778                   24.044                   30.621                   32.863                   34.347                   34.752                   20.721                   21.529                   23.416                   23.914                   24.198                   24.281                   20.358                   20.794                   21.793                   22.005                   22.099                   22.115                   20.190                   20.389                   20.808                   20.906                   20.943                   20.948
12.000                   2.2500                   1.0000                   1.7000                   2000.0                   2500.0                   15.000                   139.22                   211.69                   389.71                   449.36                   483.96                   491.22                   139.43                   211.89                   388.92                   446.95                   481.20                   488.58                   139.72                   212.18                   389.61                   448.67                   483.90                   491.28                   113.94                   170.84                   306.01                   349.13                   375.38                   381.24                   45.243                   59.305                   88.985                   96.917                   100.98                   102.07                   28.261                   33.400                   44.646                   47.627                   49.172                   49.547                   25.120                   28.502                   36.371                   38.590                   39.682                   39.905                   22.125                   23.414                   26.282                   27.161                   27.718                   27.872                   21.034                   21.740                   23.424                   23.895                   24.165                   24.229                   20.586                   20.914                   21.636                   21.844                   21.952                   21.973
12.000                   2.2500                   1.0000                   1.7000                   2000.0                   2500.0                   20.000                   213.74                   297.62                   498.35                   563.10                   598.72                   606.22                   214.05                   298.05                   499.49                   563.78                   599.33                   606.92                   214.05                   297.91                   499.75                   566.10                   604.24                   612.03                   173.63                   239.94                   394.79                   443.99                   473.44                   479.78                   63.718                   80.110                   112.52                   120.49                   124.28                   125.37                   34.997                   41.523                   55.188                   58.701                   60.343                   60.716                   29.463                   33.819                   43.364                   45.916                   46.890                   47.033                   24.092                   25.892                   29.758                   30.906                   31.581                   31.719                   22.021                   23.055                   25.510                   26.207                   26.616                   26.719                   21.198                   21.702                   22.824                   23.145                   23.309                   23.343
12.000                   2.2500                   1.0000                   1.7000                   2000.0                   2500.0                   25.000                   288.36                   379.33                   599.15                   673.45                   713.25                   721.17                   288.71                   379.84                   600.71                   675.31                   715.01                   722.94                   288.08                   378.78                   598.14                   673.58                   715.71                   723.86                   235.29                   307.99                   478.54                   532.97                   564.65                   571.27                   85.292                   103.02                   137.40                   145.88                   150.20                   151.49                   42.275                   49.044                   62.454                   65.770                   67.293                   67.653                   33.956                   38.409                   47.521                   49.854                   50.670                   50.776                   26.251                   28.158                   31.897                   32.895                   33.421                   33.533                   23.158                   24.287                   26.762                   27.439                   27.839                   27.941                   21.970                   22.544                   23.713                   24.022                   24.172                   24.204
12.000                   2.2500                   1.0000                   1.7000                   2000.0                   2500.0                   30.000                   360.64                   456.33                   692.88                   783.56                   832.61                   841.47                   361.00                   456.85                   694.27                   785.51                   834.63                   843.50                   359.56                   454.68                   689.31                   778.51                   827.60                   836.47                   296.56                   374.18                   558.24                   618.58                   652.15                   658.80                   108.55                   126.95                   162.43                   171.82                   177.58                   179.25                   49.072                   54.752                   64.350                   66.461                   67.605                   67.944                   37.741                   41.103                   46.403                   47.423                   47.855                   47.955                   28.145                   29.609                   31.817                   32.232                   32.431                   32.478                   24.183                   25.037                   26.432                   26.705                   26.844                   26.879                   22.731                   23.194                   23.907                   24.041                   24.102                   24.117
12.000                   2.2500                   1.0000                   1.7000                   2000.0                   2500.0                   35.000                   427.84                   527.49                   791.88                   896.19                   945.23                   953.27                   428.21                   528.12                   794.39                   899.26                   948.32                   956.33                   426.01                   525.10                   788.20                   892.04                   940.80                   948.83                   354.46                   434.81                   623.13                   684.85                   718.46                   724.96                   132.29                   151.32                   188.14                   198.18                   204.54                   206.32                   55.035                   59.733                   67.224                   68.855                   69.837                   70.159                   40.523                   42.941                   46.253                   46.805                   47.120                   47.227                   29.497                   30.506                   31.748                   31.908                   31.981                   32.003                   24.958                   25.538                   26.289                   26.394                   26.441                   26.456                   23.361                   23.703                   24.150                   24.219                   24.250                   24.260
12.000                   2.2500                   1.0000                   1.7000                   2000.0                   2500.0                   40.000                   490.42                   591.14                   866.04                   966.64                   1008.8                   1015.2                   491.36                   594.77                   900.02                   1003.1                   1042.2                   1047.7                   488.90                   593.11                   910.84                   1010.9                   1048.6                   1053.8                   408.62                   489.82                   675.62                   736.28                   769.24                   775.50                   156.02                   175.36                   212.66                   222.82                   229.21                   230.97                   60.494                   64.409                   70.752                   72.224                   73.141                   73.448                   42.635                   44.310                   46.572                   46.993                   47.271                   47.374                   30.486                   31.124                   31.822                   31.904                   31.949                   31.965                   25.572                   25.933                   26.338                   26.392                   26.422                   26.435                   23.897                   24.132                   24.424                   24.473                   24.498                   24.506
12.000                   2.2500                   1.0000                   1.7000                   2000.0                   2500.0                   45.000                   548.20                   645.65                   896.11                   966.24                   995.55                   999.89                   550.63                   657.00                   1010.3                   1087.8                   1106.3                   1107.5                   548.73                   660.25                   1066.8                   1132.3                   1145.7                   1145.8                   458.47                   538.65                   716.10                   774.31                   806.57                   812.51                   179.40                   198.59                   234.83                   244.39                   250.37                   252.03                   65.598                   69.003                   74.801                   76.229                   77.118                   77.413                   44.209                   45.394                   47.110                   47.477                   47.695                   47.767                   31.188                   31.599                   32.127                   32.232                   32.295                   32.316                   26.064                   26.295                   26.598                   26.659                   26.697                   26.709                   24.350                   24.511                   24.722                   24.762                   24.785                   24.793
12.000                   2.2500                   1.0000                   1.7000                   2000.0                   2500.0                   50.000                   599.01                   689.96                   914.71                   966.33                   987.90                   991.01                   603.83                   711.58                   1066.3                   1115.1                   1124.6                   1124.4                   603.58                   722.02                   1123.7                   1162.1                   1167.7                   1166.7                   503.13                   580.69                   752.00                   811.94                   843.60                   849.22                   201.88                   220.72                   256.25                   265.65                   271.55                   273.18                   70.570                   73.699                   79.211                   80.603                   81.475                   81.766                   45.429                   46.355                   47.811                   48.149                   48.356                   48.425                   31.700                   32.001                   32.444                   32.544                   32.605                   32.626                   26.480                   26.651                   26.907                   26.966                   27.002                   27.015                   24.743                   24.864                   25.036                   25.073                   25.094                   25.101
12.000                   2.2500                   1.0000                   1.7000                   2000.0                   2500.0                   55.000                   642.79                   726.79                   936.04                   976.37                   992.99                   995.26                   650.13                   761.89                   1093.3                   1125.9                   1130.8                   1129.9                   651.93                   782.85                   1142.1                   1166.4                   1168.2                   1166.7                   543.38                   617.48                   786.92                   847.34                   877.80                   883.06                   223.47                   242.01                   277.12                   286.46                   292.33                   293.95                   75.576                   78.552                   83.916                   85.294                   86.161                   86.451                   46.503                   47.287                   48.607                   48.931                   49.133                   49.201                   32.127                   32.370                   32.766                   32.861                   32.921                   32.941                   26.863                   27.003                   27.233                   27.290                   27.325                   27.337                   25.108                   25.207                   25.358                   25.392                   25.413                   25.420
12.000                   2.2500                   1.0000                   1.7000                   2000.0                   2500.0                   60.000                   679.60                   761.70                   960.77                   993.44                   1006.2                   1007.8                   688.74                   813.11                   1106.2                   1129.2                   1131.5                   1130.2                   692.13                   841.27                   1143.1                   1159.4                   1159.3                   1157.5                   579.31                   649.74                   816.93                   874.02                   902.09                   906.80                   244.17                   262.42                   297.04                   306.26                   312.06                   313.65                   80.673                   83.558                   88.828                   90.193                   91.054                   91.342                   47.513                   48.219                   49.462                   49.777                   49.975                   50.042                   32.509                   32.722                   33.089                   33.181                   33.239                   33.258                   27.227                   27.350                   27.566                   27.620                   27.655                   27.666                   25.459                   25.544                   25.684                   25.717                   25.737                   25.743
12.000                   2.2500                   1.0000                   1.7000                   2000.0                   2500.0                   65.000                   708.72                   799.73                   989.64                   1016.9                   1026.1                   1026.9                   718.65                   861.31                   1112.4                   1129.1                   1129.8                   1128.3                   723.40                   891.65                   1138.9                   1150.5                   1149.3                   1147.4                   611.07                   677.80                   841.63                   894.11                   919.53                   923.68                   263.99                   281.96                   316.07                   325.18                   330.90                   332.45                   85.882                   88.712                   93.918                   95.273                   96.129                   96.416                   48.508                   49.171                   50.369                   50.678                   50.872                   50.938                   32.869                   33.064                   33.414                   33.504                   33.561                   33.580                   27.580                   27.694                   27.900                   27.953                   27.987                   27.998                   25.801                   25.879                   26.011                   26.043                   26.063                   26.070
12.000                   2.2500                   1.0000                   1.7000                   2000.0                   2500.0                   70.000                   737.25                   841.82                   1019.8                   1042.1                   1048.0                   1048.0                   751.44                   902.17                   1115.0                   1127.6                   1127.2                   1125.6                   759.53                   930.81                   1135.2                   1143.9                   1141.9                   1140.0                   637.31                   700.88                   861.68                   909.82                   932.93                   936.64                   282.43                   300.13                   333.82                   342.83                   348.48                   350.01                   91.268                   94.065                   99.235                   100.58                   101.44                   101.72                   49.542                   50.182                   51.356                   51.662                   51.854                   51.920                   33.221                   33.406                   33.747                   33.835                   33.891                   33.910                   27.925                   28.034                   28.234                   28.286                   28.319                   28.331                   26.138                   26.212                   26.340                   26.371                   26.391                   26.397
12.000                   2.2500                   1.0000                   1.7000                   2000.0                   2500.0                   75.000                   767.37                   885.73                   1049.8                   1066.8                   1069.8                   1069.1                   788.60                   938.80                   1116.3                   1125.8                   1124.5                   1122.8                   801.51                   964.27                   1132.3                   1138.7                   1136.3                   1134.3                   660.61                   721.40                   879.68                   923.81                   944.86                   948.17                   300.08                   317.53                   350.84                   359.77                   365.37                   366.88                   96.753                   99.528                   104.67                   106.02                   106.87                   107.16                   50.604                   51.231                   52.390                   52.693                   52.885                   52.950                   33.570                   33.751                   34.084                   34.172                   34.227                   34.246                   28.266                   28.371                   28.567                   28.619                   28.652                   28.663                   26.472                   26.544                   26.669                   26.700                   26.719                   26.725