% Model:              batchmodel_COIL_N_12_COIL_kr_2.25_COIL_kh_2_COIL_kturn_1.7_FUNZ_freq_10000_FUNZ_I_eff_2500.mph
% Version:            COMSOL 5.6.0.280
% Date:               Feb 1 2022, 21:16
% Table:              Tabella 1 - GRIGLIA_T
% COIL_N                 COIL_kr                  COIL_kh                  COIL_kturn               FUNZ_freq                FUNZ_I_eff               Time (s)                 Temperatura (degC), Punto: (0, 0)Temperatura (degC), Punto: (15, 0)Temperatura (degC), Punto: (28.051, 0)Temperatura (degC), Punto: (29.025, 0)Temperatura (degC), Punto: (29.61, 0)Temperatura (degC), Punto: (29.805, 0)Temperatura (degC), Punto: (0, 62.5)Temperatura (degC), Punto: (15, 62.5)Temperatura (degC), Punto: (28.051, 62.5)Temperatura (degC), Punto: (29.025, 62.5)Temperatura (degC), Punto: (29.61, 62.5)Temperatura (degC), Punto: (29.805, 62.5)Temperatura (degC), Punto: (0, 125)Temperatura (degC), Punto: (15, 125)Temperatura (degC), Punto: (28.051, 125)Temperatura (degC), Punto: (29.025, 125)Temperatura (degC), Punto: (29.61, 125)Temperatura (degC), Punto: (29.805, 125)Temperatura (degC), Punto: (0, 187.5)Temperatura (degC), Punto: (15, 187.5)Temperatura (degC), Punto: (28.051, 187.5)Temperatura (degC), Punto: (29.025, 187.5)Temperatura (degC), Punto: (29.61, 187.5)Temperatura (degC), Punto: (29.805, 187.5)Temperatura (degC), Punto: (0, 250)Temperatura (degC), Punto: (15, 250)Temperatura (degC), Punto: (28.051, 250)Temperatura (degC), Punto: (29.025, 250)Temperatura (degC), Punto: (29.61, 250)Temperatura (degC), Punto: (29.805, 250)Temperatura (degC), Punto: (0, 312.5)Temperatura (degC), Punto: (15, 312.5)Temperatura (degC), Punto: (28.051, 312.5)Temperatura (degC), Punto: (29.025, 312.5)Temperatura (degC), Punto: (29.61, 312.5)Temperatura (degC), Punto: (29.805, 312.5)Temperatura (degC), Punto: (0, 375)Temperatura (degC), Punto: (15, 375)Temperatura (degC), Punto: (28.051, 375)Temperatura (degC), Punto: (29.025, 375)Temperatura (degC), Punto: (29.61, 375)Temperatura (degC), Punto: (29.805, 375)Temperatura (degC), Punto: (0, 437.5)Temperatura (degC), Punto: (15, 437.5)Temperatura (degC), Punto: (28.051, 437.5)Temperatura (degC), Punto: (29.025, 437.5)Temperatura (degC), Punto: (29.61, 437.5)Temperatura (degC), Punto: (29.805, 437.5)Temperatura (degC), Punto: (0, 468.75)Temperatura (degC), Punto: (15, 468.75)Temperatura (degC), Punto: (28.051, 468.75)Temperatura (degC), Punto: (29.025, 468.75)Temperatura (degC), Punto: (29.61, 468.75)Temperatura (degC), Punto: (29.805, 468.75)Temperatura (degC), Punto: (0, 492.19)Temperatura (degC), Punto: (15, 492.19)Temperatura (degC), Punto: (28.051, 492.19)Temperatura (degC), Punto: (29.025, 492.19)Temperatura (degC), Punto: (29.61, 492.19)Temperatura (degC), Punto: (29.805, 492.19)
12.000                   2.2500                   2.0000                   1.7000                   10000                    2500.0                   0.0000                   20.000                   20.000                   20.000                   20.000                   20.066                   20.228                   20.000                   20.000                   20.000                   20.000                   20.066                   20.228                   20.000                   20.000                   20.000                   20.000                   20.068                   20.230                   20.000                   20.000                   20.000                   20.000                   20.069                   20.233                   20.000                   20.000                   20.000                   20.000                   20.071                   20.236                   20.000                   20.000                   20.000                   20.000                   20.072                   20.238                   20.000                   20.000                   20.000                   20.000                   20.063                   20.222                   20.000                   20.000                   20.000                   20.000                   20.004                   20.039                   20.000                   20.000                   20.000                   20.000                   20.001                   20.011                   20.000                   20.000                   20.000                   20.000                   20.000                   20.004
12.000                   2.2500                   2.0000                   1.7000                   10000                    2500.0                   5.0000                   25.607                   47.386                   174.36                   192.69                   204.47                   207.61                   25.580                   47.485                   174.07                   192.09                   203.61                   206.66                   25.575                   47.444                   173.49                   191.13                   202.38                   205.67                   25.495                   47.185                   174.49                   192.85                   204.73                   207.96                   25.584                   47.586                   176.12                   194.61                   206.12                   208.88                   25.617                   47.905                   178.56                   196.98                   208.64                   211.80                   25.065                   45.036                   158.74                   174.66                   184.91                   187.74                   21.256                   25.958                   51.080                   54.375                   56.165                   56.846                   20.492                   22.289                   30.656                   31.530                   31.819                   31.898                   20.346                   21.475                   24.609                   24.454                   24.161                   24.167
12.000                   2.2500                   2.0000                   1.7000                   10000                    2500.0                   10.000                   63.870                   114.11                   293.03                   315.63                   329.45                   332.87                   64.071                   114.60                   294.51                   317.38                   331.43                   334.87                   64.074                   114.68                   295.62                   318.55                   332.40                   335.81                   63.897                   114.70                   297.41                   320.70                   334.89                   338.33                   64.197                   115.19                   297.71                   320.82                   334.96                   338.48                   64.244                   115.28                   298.00                   321.09                   335.00                   338.38                   58.858                   103.94                   264.14                   284.08                   296.26                   299.35                   29.741                   40.224                   75.315                   79.451                   81.430                   82.042                   23.721                   27.702                   42.241                   44.134                   45.179                   45.495                   22.366                   24.956                   35.148                   36.556                   37.185                   37.310
12.000                   2.2500                   2.0000                   1.7000                   10000                    2500.0                   15.000                   126.81                   193.45                   415.07                   443.22                   460.00                   463.83                   127.32                   194.30                   416.54                   444.69                   461.42                   465.27                   127.39                   194.58                   419.05                   447.60                   464.45                   468.33                   127.36                   194.93                   420.34                   448.91                   465.75                   469.65                   127.56                   195.21                   422.03                   451.10                   468.41                   472.31                   127.30                   194.86                   422.24                   451.46                   468.76                   472.76                   113.53                   172.80                   367.36                   391.67                   406.34                   409.84                   44.955                   59.073                   98.116                   101.97                   104.19                   104.90                   29.839                   35.422                   50.644                   51.964                   52.551                   52.735                   26.602                   30.656                   41.607                   42.731                   43.388                   43.543
12.000                   2.2500                   2.0000                   1.7000                   10000                    2500.0                   20.000                   199.40                   278.14                   544.45                   579.24                   599.34                   603.65                   200.04                   278.92                   543.72                   578.12                   597.68                   601.94                   200.15                   279.30                   547.01                   581.50                   601.61                   606.03                   200.20                   279.53                   545.66                   579.90                   599.48                   603.79                   200.25                   279.69                   547.03                   581.79                   601.97                   606.28                   199.74                   279.40                   550.86                   586.07                   606.40                   610.86                   176.23                   245.51                   472.44                   501.17                   517.97                   521.76                   64.554                   81.587                   129.10                   134.25                   136.71                   137.46                   38.373                   45.556                   65.543                   67.370                   68.064                   68.233                   33.061                   39.112                   57.098                   59.212                   60.216                   60.382
12.000                   2.2500                   2.0000                   1.7000                   10000                    2500.0                   25.000                   273.26                   360.06                   654.05                   694.30                   717.79                   722.63                   273.85                   360.63                   652.15                   691.72                   714.34                   719.10                   273.85                   360.81                   656.04                   696.12                   720.01                   725.02                   273.78                   360.73                   652.89                   692.19                   714.70                   719.47                   273.77                   360.85                   653.50                   693.29                   716.47                   721.26                   273.21                   360.78                   658.44                   698.42                   722.07                   727.11                   241.13                   317.87                   571.11                   604.00                   622.90                   626.96                   88.935                   108.51                   161.86                   167.45                   170.12                   170.87                   50.091                   58.547                   81.140                   83.189                   83.918                   84.078                   42.473                   50.134                   71.326                   73.600                   74.595                   74.735
12.000                   2.2500                   2.0000                   1.7000                   10000                    2500.0                   30.000                   345.44                   438.12                   758.83                   806.63                   833.06                   838.21                   345.97                   438.54                   757.09                   804.39                   830.21                   835.32                   345.81                   438.49                   760.76                   808.75                   835.62                   840.91                   345.59                   438.19                   758.37                   805.93                   831.82                   836.94                   345.57                   438.35                   759.53                   807.58                   833.96                   839.11                   345.01                   438.44                   764.68                   812.94                   839.78                   845.11                   305.31                   388.04                   661.28                   698.01                   719.08                   723.43                   114.63                   135.90                   191.25                   196.78                   199.72                   200.55                   62.571                   71.484                   93.196                   95.095                   95.917                   96.133                   52.063                   59.861                   78.145                   79.762                   80.471                   80.588
12.000                   2.2500                   2.0000                   1.7000                   10000                    2500.0                   35.000                   413.42                   509.26                   857.84                   911.22                   938.04                   942.92                   413.88                   509.64                   857.32                   910.60                   937.42                   942.32                   413.57                   509.43                   859.79                   913.51                   940.40                   945.30                   413.23                   509.10                   860.76                   915.02                   942.14                   947.06                   413.26                   509.45                   864.28                   919.04                   946.25                   951.16                   412.73                   509.62                   869.61                   924.93                   952.23                   957.12                   367.01                   453.42                   740.26                   781.55                   804.68                   809.29                   141.38                   163.22                   217.30                   222.51                   225.71                   226.67                   75.536                   83.937                   102.25                   103.80                   104.73                   105.04                   61.132                   67.381                   78.330                   78.933                   79.259                   79.365
12.000                   2.2500                   2.0000                   1.7000                   10000                    2500.0                   40.000                   476.94                   574.59                   945.90                   994.01                   1016.4                   1020.3                   477.35                   574.99                   945.35                   993.11                   1015.4                   1019.3                   476.95                   574.75                   946.92                   994.79                   1017.1                   1020.9                   476.56                   574.55                   949.05                   996.91                   1019.0                   1022.8                   476.69                   575.20                   953.46                   1001.0                   1022.6                   1026.3                   476.17                   575.43                   965.49                   1015.0                   1036.2                   1039.6                   425.65                   514.18                   815.94                   862.26                   886.60                   891.22                   168.20                   190.25                   244.59                   249.88                   253.12                   254.10                   88.384                   96.155                   113.34                   114.88                   115.82                   116.13                   69.390                   74.064                   82.023                   82.565                   82.883                   82.988
12.000                   2.2500                   2.0000                   1.7000                   10000                    2500.0                   45.000                   535.60                   631.47                   990.54                   1027.0                   1041.7                   1043.9                   535.98                   631.65                   983.77                   1019.6                   1034.9                   1037.3                   535.56                   631.41                   979.78                   1014.9                   1030.3                   1032.7                   535.21                   631.39                   969.25                   1001.3                   1016.0                   1018.5                   535.51                   632.45                   969.87                   999.76                   1013.4                   1015.7                   535.13                   634.19                   1041.8                   1075.6                   1085.3                   1086.1                   480.05                   569.01                   880.18                   923.43                   945.31                   949.34                   194.62                   216.63                   270.76                   276.03                   279.27                   280.23                   101.04                   108.34                   124.92                   126.43                   127.35                   127.65                   77.103                   80.818                   87.667                   88.201                   88.508                   88.609
12.000                   2.2500                   2.0000                   1.7000                   10000                    2500.0                   50.000                   586.59                   678.00                   1041.4                   1069.7                   1078.0                   1078.7                   586.85                   677.37                   1006.5                   1033.4                   1043.4                   1044.7                   586.48                   676.75                   984.03                   1008.8                   1019.8                   1021.6                   586.27                   676.76                   973.77                   997.30                   1008.4                   1010.3                   586.77                   678.36                   980.67                   1003.3                   1013.5                   1015.2                   586.77                   682.34                   1058.9                   1081.4                   1087.3                   1087.6                   528.76                   615.51                   925.64                   963.70                   982.64                   986.06                   220.15                   242.16                   296.69                   302.06                   305.35                   306.32                   113.64                   120.70                   137.12                   138.66                   139.58                   139.89                   84.828                   88.130                   94.641                   95.199                   95.494                   95.592
12.000                   2.2500                   2.0000                   1.7000                   10000                    2500.0                   55.000                   630.15                   716.70                   1069.3                   1089.6                   1094.3                   1094.3                   630.21                   715.03                   1027.4                   1048.6                   1055.5                   1056.1                   629.88                   713.64                   991.31                   1010.0                   1018.2                   1019.5                   629.82                   713.53                   981.32                   999.65                   1008.2                   1009.6                   630.48                   715.62                   996.05                   1014.7                   1022.6                   1023.8                   630.96                   721.69                   1069.9                   1087.5                   1091.7                   1091.7                   572.25                   655.54                   957.22                   989.69                   1005.5                   1008.4                   244.86                   266.96                   322.14                   327.58                   330.92                   331.90                   126.36                   133.33                   149.82                   151.39                   152.31                   152.61                   92.935                   96.065                   102.48                   103.04                   103.34                   103.44
12.000                   2.2500                   2.0000                   1.7000                   10000                    2500.0                   60.000                   666.95                   749.78                   1076.8                   1091.8                   1095.0                   1094.9                   666.81                   747.08                   1043.9                   1061.2                   1066.3                   1066.6                   666.50                   744.88                   1005.2                   1020.8                   1027.0                   1027.8                   666.55                   744.59                   994.04                   1009.0                   1015.5                   1016.5                   667.31                   747.22                   1014.3                   1030.5                   1036.5                   1037.2                   668.19                   755.23                   1076.6                   1090.6                   1093.6                   1093.5                   610.68                   690.16                   976.03                   1002.1                   1014.4                   1016.5                   268.75                   290.95                   346.61                   352.11                   355.47                   356.45                   139.27                   146.23                   162.89                   164.48                   165.41                   165.72                   101.49                   104.54                   110.88                   111.43                   111.73                   111.83
12.000                   2.2500                   2.0000                   1.7000                   10000                    2500.0                   65.000                   697.48                   781.21                   1076.4                   1088.5                   1090.9                   1090.7                   697.15                   777.31                   1054.1                   1068.2                   1072.0                   1072.0                   696.85                   774.41                   1022.0                   1035.5                   1040.2                   1040.6                   696.98                   774.01                   1011.3                   1024.0                   1028.8                   1029.4                   697.75                   777.32                   1032.6                   1046.7                   1051.1                   1051.4                   698.88                   787.18                   1079.7                   1091.0                   1093.2                   1092.9                   644.41                   719.98                   993.45                   1014.9                   1024.2                   1025.7                   291.76                   313.95                   369.54                   375.02                   378.38                   379.34                   152.31                   159.26                   175.84                   177.42                   178.36                   178.66                   110.46                   113.45                   119.58                   120.09                   120.39                   120.49
12.000                   2.2500                   2.0000                   1.7000                   10000                    2500.0                   70.000                   717.05                   810.42                   1074.2                   1084.6                   1086.6                   1086.3                   716.59                   806.83                   1058.5                   1070.3                   1073.1                   1073.0                   716.33                   804.33                   1036.6                   1048.3                   1051.8                   1052.0                   716.52                   804.25                   1029.8                   1041.0                   1044.6                   1044.9                   717.33                   807.53                   1045.5                   1057.3                   1060.6                   1060.7                   718.57                   816.66                   1079.7                   1089.3                   1090.9                   1090.6                   669.31                   745.12                   1014.6                   1034.0                   1041.4                   1042.4                   312.60                   334.68                   390.05                   395.52                   398.86                   399.82                   165.41                   172.33                   188.82                   190.39                   191.33                   191.63                   120.18                   123.13                   129.19                   129.71                   130.00                   130.09
12.000                   2.2500                   2.0000                   1.7000                   10000                    2500.0                   75.000                   736.63                   839.63                   1072.1                   1080.7                   1082.2                   1081.9                   736.03                   836.34                   1062.9                   1072.3                   1074.3                   1074.0                   735.81                   834.25                   1051.3                   1061.1                   1063.4                   1063.3                   736.05                   834.50                   1048.3                   1058.0                   1060.4                   1060.3                   736.90                   837.73                   1058.4                   1068.0                   1070.1                   1069.9                   738.26                   846.14                   1079.7                   1087.6                   1088.7                   1088.3                   694.21                   770.26                   1035.7                   1053.0                   1058.6                   1059.0                   333.45                   355.42                   410.56                   416.01                   419.35                   420.29                   178.50                   185.39                   201.80                   203.35                   204.30                   204.61                   129.90                   132.81                   138.80                   139.33                   139.61                   139.70