% Model:              batchmodel_COIL_N_12_COIL_kr_3_COIL_kh_1_COIL_kturn_1.4_FUNZ_freq_2000_FUNZ_I_eff_2500.mph
% Version:            COMSOL 5.6.0.280
% Date:               Feb 2 2022, 00:09
% Table:              Tabella 1 - GRIGLIA_T
% COIL_N                 COIL_kr                  COIL_kh                  COIL_kturn               FUNZ_freq                FUNZ_I_eff               Time (s)                 Temperatura (degC), Punto: (0, 0)Temperatura (degC), Punto: (15, 0)Temperatura (degC), Punto: (25.641, 0)Temperatura (degC), Punto: (27.821, 0)Temperatura (degC), Punto: (29.128, 0)Temperatura (degC), Punto: (29.564, 0)Temperatura (degC), Punto: (0, 62.5)Temperatura (degC), Punto: (15, 62.5)Temperatura (degC), Punto: (25.641, 62.5)Temperatura (degC), Punto: (27.821, 62.5)Temperatura (degC), Punto: (29.128, 62.5)Temperatura (degC), Punto: (29.564, 62.5)Temperatura (degC), Punto: (0, 125)Temperatura (degC), Punto: (15, 125)Temperatura (degC), Punto: (25.641, 125)Temperatura (degC), Punto: (27.821, 125)Temperatura (degC), Punto: (29.128, 125)Temperatura (degC), Punto: (29.564, 125)Temperatura (degC), Punto: (0, 187.5)Temperatura (degC), Punto: (15, 187.5)Temperatura (degC), Punto: (25.641, 187.5)Temperatura (degC), Punto: (27.821, 187.5)Temperatura (degC), Punto: (29.128, 187.5)Temperatura (degC), Punto: (29.564, 187.5)Temperatura (degC), Punto: (0, 250)Temperatura (degC), Punto: (15, 250)Temperatura (degC), Punto: (25.641, 250)Temperatura (degC), Punto: (27.821, 250)Temperatura (degC), Punto: (29.128, 250)Temperatura (degC), Punto: (29.564, 250)Temperatura (degC), Punto: (0, 312.5)Temperatura (degC), Punto: (15, 312.5)Temperatura (degC), Punto: (25.641, 312.5)Temperatura (degC), Punto: (27.821, 312.5)Temperatura (degC), Punto: (29.128, 312.5)Temperatura (degC), Punto: (29.564, 312.5)Temperatura (degC), Punto: (0, 375)Temperatura (degC), Punto: (15, 375)Temperatura (degC), Punto: (25.641, 375)Temperatura (degC), Punto: (27.821, 375)Temperatura (degC), Punto: (29.128, 375)Temperatura (degC), Punto: (29.564, 375)Temperatura (degC), Punto: (0, 437.5)Temperatura (degC), Punto: (15, 437.5)Temperatura (degC), Punto: (25.641, 437.5)Temperatura (degC), Punto: (27.821, 437.5)Temperatura (degC), Punto: (29.128, 437.5)Temperatura (degC), Punto: (29.564, 437.5)Temperatura (degC), Punto: (0, 468.75)Temperatura (degC), Punto: (15, 468.75)Temperatura (degC), Punto: (25.641, 468.75)Temperatura (degC), Punto: (27.821, 468.75)Temperatura (degC), Punto: (29.128, 468.75)Temperatura (degC), Punto: (29.564, 468.75)Temperatura (degC), Punto: (0, 492.19)Temperatura (degC), Punto: (15, 492.19)Temperatura (degC), Punto: (25.641, 492.19)Temperatura (degC), Punto: (27.821, 492.19)Temperatura (degC), Punto: (29.128, 492.19)Temperatura (degC), Punto: (29.564, 492.19)
12.000                   3.0000                   1.0000                   1.4000                   2000.0                   2500.0                   0.0000                   20.000                   20.000                   20.000                   20.000                   20.056                   20.125                   20.000                   20.000                   20.000                   20.000                   20.056                   20.125                   20.000                   20.000                   20.000                   20.000                   20.051                   20.116                   20.000                   20.000                   20.000                   20.000                   20.018                   20.056                   20.000                   20.000                   20.000                   20.000                   20.001                   20.012                   20.000                   20.000                   20.000                   20.000                   20.000                   20.002                   20.000                   20.000                   20.000                   20.000                   20.000                   20.000                   20.000                   20.000                   20.000                   20.000                   20.000                   20.000                   20.000                   20.000                   20.000                   20.000                   20.000                   20.000                   20.000                   20.000                   20.000                   20.000                   20.000                   20.000
12.000                   3.0000                   1.0000                   1.4000                   2000.0                   2500.0                   5.0000                   27.448                   55.840                   172.13                   218.04                   247.79                   254.66                   27.475                   56.016                   173.05                   219.12                   248.72                   255.56                   26.499                   51.559                   154.90                   195.36                   221.84                   228.13                   22.427                   32.425                   76.842                   94.087                   105.88                   109.14                   20.288                   22.018                   32.278                   36.368                   39.092                   40.006                   19.847                   19.891                   22.562                   23.819                   24.624                   24.892                   19.793                   19.501                   20.881                   21.605                   21.953                   22.054                   19.779                   19.331                   19.818                   20.251                   20.481                   20.531                   19.921                   19.904                   21.056                   21.524                   21.708                   21.739                   20.017                   20.302                   21.566                   21.928                   22.069                   22.102
12.000                   3.0000                   1.0000                   1.4000                   2000.0                   2500.0                   10.000                   78.453                   144.24                   322.89                   386.06                   423.25                   431.05                   78.271                   143.80                   320.91                   383.23                   419.99                   427.71                   71.497                   130.20                   286.96                   340.67                   373.08                   380.11                   43.503                   71.209                   141.32                   163.14                   177.20                   180.86                   25.579                   32.926                   51.152                   56.213                   59.360                   60.350                   21.306                   23.816                   30.119                   31.707                   32.621                   32.911                   20.533                   22.139                   26.390                   27.281                   27.703                   27.819                   20.228                   21.352                   24.510                   25.136                   25.391                   25.447                   20.513                   21.570                   24.096                   24.559                   24.743                   24.781                   21.037                   22.401                   24.815                   25.211                   25.355                   25.382
12.000                   3.0000                   1.0000                   1.4000                   2000.0                   2500.0                   15.000                   157.31                   244.64                   467.45                   545.20                   587.70                   596.09                   156.37                   242.91                   462.79                   539.32                   581.29                   589.60                   141.85                   219.57                   411.76                   476.84                   513.64                   521.15                   80.082                   117.69                   201.20                   226.29                   242.26                   246.23                   35.755                   45.654                   65.411                   70.656                   73.982                   75.034                   24.935                   28.436                   34.821                   36.305                   37.204                   37.501                   22.678                   24.811                   28.348                   28.996                   29.354                   29.468                   21.772                   23.275                   25.618                   25.974                   26.145                   26.193                   21.947                   23.217                   25.067                   25.307                   25.413                   25.441                   22.593                   23.957                   25.702                   25.908                   25.981                   25.998
12.000                   3.0000                   1.0000                   1.4000                   2000.0                   2500.0                   20.000                   244.55                   345.09                   599.32                   688.15                   734.08                   742.75                   242.79                   342.48                   594.58                   682.51                   728.03                   736.65                   220.69                   310.29                   531.55                   606.95                   648.32                   656.45                   124.12                   167.72                   262.74                   291.65                   309.85                   314.13                   47.942                   58.476                   78.484                   83.912                   87.427                   88.525                   28.934                   32.185                   37.661                   39.036                   39.922                   40.224                   24.731                   26.321                   28.380                   28.796                   29.106                   29.225                   23.122                   24.086                   25.024                   25.149                   25.255                   25.302                   23.177                   23.974                   24.677                   24.721                   24.761                   24.777                   23.669                   24.415                   25.069                   25.117                   25.137                   25.144
12.000                   3.0000                   1.0000                   1.4000                   2000.0                   2500.0                   25.000                   330.49                   439.50                   717.10                   824.33                   880.66                   890.63                   328.00                   436.04                   709.23                   811.80                   866.30                   876.08                   299.40                   396.82                   634.37                   715.29                   758.52                   766.79                   171.31                   219.61                   324.97                   357.15                   377.12                   381.64                   61.213                   72.262                   93.479                   99.314                   103.12                   104.27                   32.747                   35.717                   40.946                   42.334                   43.235                   43.545                   26.317                   27.431                   28.949                   29.326                   29.602                   29.708                   24.025                   24.583                   25.215                   25.405                   25.572                   25.638                   23.964                   24.376                   24.694                   24.737                   24.773                   24.786                   24.274                   24.613                   24.862                   24.892                   24.912                   24.920
12.000                   3.0000                   1.0000                   1.4000                   2000.0                   2500.0                   30.000                   410.74                   523.94                   828.42                   949.46                   1001.1                   1009.1                   407.90                   521.78                   858.59                   980.38                   1027.4                   1034.3                   373.83                   474.52                   719.64                   811.31                   860.64                   869.47                   220.11                   271.83                   384.75                   418.99                   439.65                   444.21                   75.740                   87.306                   109.72                   115.85                   119.82                   121.02                   36.441                   39.303                   44.643                   46.074                   46.993                   47.305                   27.512                   28.414                   29.944                   30.351                   30.618                   30.712                   24.570                   24.976                   25.709                   25.950                   26.132                   26.191                   24.364                   24.605                   24.920                   24.996                   25.044                   25.060                   24.525                   24.711                   24.931                   24.977                   25.005                   25.015
12.000                   3.0000                   1.0000                   1.4000                   2000.0                   2500.0                   35.000                   483.57                   596.88                   888.47                   974.14                   1008.3                   1013.2                   481.79                   604.68                   1046.5                   1135.7                   1155.5                   1156.5                   441.57                   542.81                   795.23                   894.01                   940.06                   947.61                   268.08                   322.08                   438.79                   473.53                   494.00                   498.43                   91.078                   103.00                   125.92                   132.08                   136.00                   137.21                   40.194                   43.050                   48.444                   49.879                   50.791                   51.099                   28.631                   29.509                   31.169                   31.622                   31.914                   32.014                   25.009                   25.358                   25.990                   26.152                   26.253                   26.287                   24.639                   24.831                   25.158                   25.243                   25.297                   25.316                   24.688                   24.828                   25.040                   25.089                   25.119                   25.129
12.000                   3.0000                   1.0000                   1.4000                   2000.0                   2500.0                   40.000                   549.62                   659.11                   930.98                   989.95                   1011.9                   1014.8                   550.18                   679.88                   1122.6                   1171.2                   1179.2                   1178.5                   502.65                   601.66                   852.15                   938.38                   976.07                   981.96                   314.02                   369.18                   487.01                   521.75                   541.97                   546.27                   106.88                   119.03                   142.25                   148.47                   152.43                   153.63                   44.059                   46.917                   52.301                   53.726                   54.631                   54.936                   29.770                   30.658                   32.350                   32.804                   33.094                   33.193                   25.421                   25.742                   26.329                   26.481                   26.577                   26.609                   24.883                   25.059                   25.381                   25.466                   25.519                   25.538                   24.837                   24.959                   25.159                   25.207                   25.237                   25.247
12.000                   3.0000                   1.0000                   1.4000                   2000.0                   2500.0                   45.000                   608.07                   712.00                   978.77                   1024.6                   1038.5                   1039.6                   611.20                   744.36                   1144.0                   1173.6                   1176.7                   1175.3                   557.72                   652.37                   895.65                   966.95                   997.32                   1001.9                   357.34                   412.88                   531.03                   565.95                   586.09                   590.30                   122.99                   135.33                   158.94                   165.29                   169.33                   170.55                   48.050                   50.910                   56.303                   57.734                   58.644                   58.950                   30.938                   31.831                   33.530                   33.984                   34.273                   34.371                   25.826                   26.132                   26.700                   26.849                   26.944                   26.976                   25.117                   25.287                   25.604                   25.687                   25.740                   25.759                   24.985                   25.099                   25.293                   25.340                   25.369                   25.379
12.000                   3.0000                   1.0000                   1.4000                   2000.0                   2500.0                   50.000                   656.43                   760.37                   1032.4                   1066.9                   1074.1                   1073.8                   661.18                   803.76                   1145.9                   1166.3                   1167.1                   1165.5                   605.59                   696.53                   943.84                   1003.7                   1027.3                   1030.4                   397.17                   452.49                   570.24                   605.01                   624.94                   629.05                   139.34                   151.88                   175.95                   182.43                   186.56                   187.80                   52.210                   55.083                   60.511                   61.954                   62.872                   63.180                   32.139                   33.034                   34.735                   35.189                   35.478                   35.576                   26.233                   26.531                   27.091                   27.240                   27.334                   27.366                   25.350                   25.516                   25.830                   25.913                   25.966                   25.984                   25.141                   25.251                   25.441                   25.488                   25.517                   25.527
12.000                   3.0000                   1.0000                   1.4000                   2000.0                   2500.0                   55.000                   692.32                   814.07                   1066.0                   1090.2                   1093.6                   1092.7                   696.93                   853.90                   1141.4                   1157.0                   1156.7                   1154.9                   645.27                   738.23                   1012.7                   1060.3                   1074.1                   1075.1                   432.53                   487.21                   603.01                   637.39                   657.03                   661.01                   155.81                   168.53                   192.97                   199.55                   203.75                   205.00                   56.604                   59.496                   64.964                   66.418                   67.343                   67.653                   33.382                   34.278                   35.979                   36.433                   36.722                   36.820                   26.647                   26.942                   27.497                   27.645                   27.738                   27.770                   25.587                   25.752                   26.063                   26.145                   26.198                   26.216                   25.309                   25.417                   25.605                   25.652                   25.680                   25.690
12.000                   3.0000                   1.0000                   1.4000                   2000.0                   2500.0                   60.000                   725.29                   866.15                   1091.1                   1107.2                   1108.0                   1106.6                   729.74                   898.62                   1137.1                   1148.6                   1147.4                   1145.6                   680.59                   784.09                   1064.8                   1100.1                   1106.8                   1106.3                   465.86                   519.66                   632.95                   666.75                   686.00                   689.85                   172.20                   185.08                   209.85                   216.53                   220.79                   222.05                   61.117                   64.029                   69.537                   71.001                   71.933                   72.246                   34.650                   35.546                   37.247                   37.701                   37.990                   38.088                   27.066                   27.358                   27.910                   28.056                   28.149                   28.181                   25.828                   25.991                   26.300                   26.382                   26.434                   26.452                   25.483                   25.590                   25.776                   25.822                   25.851                   25.860
12.000                   3.0000                   1.0000                   1.4000                   2000.0                   2500.0                   65.000                   754.88                   916.35                   1106.4                   1117.1                   1116.2                   1114.5                   759.13                   937.06                   1132.8                   1141.4                   1139.5                   1137.7                   710.84                   834.78                   1097.6                   1120.5                   1123.0                   1121.8                   496.86                   549.46                   659.60                   692.61                   711.38                   715.09                   188.52                   201.52                   226.58                   233.35                   237.66                   238.92                   65.769                   68.702                   74.249                   75.724                   76.662                   76.976                   35.946                   36.843                   38.544                   38.997                   39.286                   39.384                   27.490                   27.781                   28.329                   28.475                   28.568                   28.599                   26.074                   26.236                   26.542                   26.624                   26.676                   26.694                   25.664                   25.770                   25.955                   26.000                   26.029                   26.038
12.000                   3.0000                   1.0000                   1.4000                   2000.0                   2500.0                   70.000                   803.14                   959.44                   1116.8                   1123.9                   1121.9                   1120.1                   804.34                   970.67                   1131.9                   1138.2                   1135.8                   1133.8                   739.44                   884.56                   1114.5                   1130.0                   1130.3                   1128.7                   524.73                   575.73                   682.40                   714.43                   732.74                   736.33                   204.56                   217.69                   243.05                   249.91                   254.28                   255.55                   70.620                   73.576                   79.170                   80.658                   81.604                   81.922                   37.291                   38.188                   39.892                   40.347                   40.637                   40.735                   27.926                   28.215                   28.762                   28.907                   29.000                   29.031                   26.327                   26.488                   26.794                   26.875                   26.927                   26.945                   25.856                   25.961                   26.145                   26.190                   26.218                   26.228
12.000                   3.0000                   1.0000                   1.4000                   2000.0                   2500.0                   75.000                   856.17                   999.56                   1125.7                   1129.9                   1127.0                   1125.0                   853.70                   1002.5                   1132.4                   1136.5                   1133.6                   1131.6                   770.55                   932.92                   1126.5                   1136.3                   1134.9                   1133.0                   551.33                   600.61                   703.77                   734.87                   752.78                   756.25                   220.48                   233.74                   259.39                   266.35                   270.77                   272.04                   75.552                   78.533                   84.176                   85.677                   86.633                   86.953                   38.657                   39.556                   41.264                   41.720                   42.011                   42.110                   28.366                   28.654                   29.200                   29.345                   29.437                   29.469                   26.584                   26.745                   27.049                   27.131                   27.182                   27.200                   26.052                   26.156                   26.339                   26.385                   26.413                   26.422