% Model:              batchmodel_COIL_N_12_COIL_kr_3_COIL_kh_3_COIL_kturn_1.1_FUNZ_freq_10000_FUNZ_I_eff_4000.mph
% Version:            COMSOL 5.6.0.280
% Date:               Feb 2 2022, 04:32
% Table:              Tabella 1 - GRIGLIA_T
% COIL_N                 COIL_kr                  COIL_kh                  COIL_kturn               FUNZ_freq                FUNZ_I_eff               Time (s)                 Temperatura (degC), Punto: (0, 0)Temperatura (degC), Punto: (15, 0)Temperatura (degC), Punto: (28.051, 0)Temperatura (degC), Punto: (29.025, 0)Temperatura (degC), Punto: (29.61, 0)Temperatura (degC), Punto: (29.805, 0)Temperatura (degC), Punto: (0, 62.5)Temperatura (degC), Punto: (15, 62.5)Temperatura (degC), Punto: (28.051, 62.5)Temperatura (degC), Punto: (29.025, 62.5)Temperatura (degC), Punto: (29.61, 62.5)Temperatura (degC), Punto: (29.805, 62.5)Temperatura (degC), Punto: (0, 125)Temperatura (degC), Punto: (15, 125)Temperatura (degC), Punto: (28.051, 125)Temperatura (degC), Punto: (29.025, 125)Temperatura (degC), Punto: (29.61, 125)Temperatura (degC), Punto: (29.805, 125)Temperatura (degC), Punto: (0, 187.5)Temperatura (degC), Punto: (15, 187.5)Temperatura (degC), Punto: (28.051, 187.5)Temperatura (degC), Punto: (29.025, 187.5)Temperatura (degC), Punto: (29.61, 187.5)Temperatura (degC), Punto: (29.805, 187.5)Temperatura (degC), Punto: (0, 250)Temperatura (degC), Punto: (15, 250)Temperatura (degC), Punto: (28.051, 250)Temperatura (degC), Punto: (29.025, 250)Temperatura (degC), Punto: (29.61, 250)Temperatura (degC), Punto: (29.805, 250)Temperatura (degC), Punto: (0, 312.5)Temperatura (degC), Punto: (15, 312.5)Temperatura (degC), Punto: (28.051, 312.5)Temperatura (degC), Punto: (29.025, 312.5)Temperatura (degC), Punto: (29.61, 312.5)Temperatura (degC), Punto: (29.805, 312.5)Temperatura (degC), Punto: (0, 375)Temperatura (degC), Punto: (15, 375)Temperatura (degC), Punto: (28.051, 375)Temperatura (degC), Punto: (29.025, 375)Temperatura (degC), Punto: (29.61, 375)Temperatura (degC), Punto: (29.805, 375)Temperatura (degC), Punto: (0, 437.5)Temperatura (degC), Punto: (15, 437.5)Temperatura (degC), Punto: (28.051, 437.5)Temperatura (degC), Punto: (29.025, 437.5)Temperatura (degC), Punto: (29.61, 437.5)Temperatura (degC), Punto: (29.805, 437.5)Temperatura (degC), Punto: (0, 468.75)Temperatura (degC), Punto: (15, 468.75)Temperatura (degC), Punto: (28.051, 468.75)Temperatura (degC), Punto: (29.025, 468.75)Temperatura (degC), Punto: (29.61, 468.75)Temperatura (degC), Punto: (29.805, 468.75)Temperatura (degC), Punto: (0, 492.19)Temperatura (degC), Punto: (15, 492.19)Temperatura (degC), Punto: (28.051, 492.19)Temperatura (degC), Punto: (29.025, 492.19)Temperatura (degC), Punto: (29.61, 492.19)Temperatura (degC), Punto: (29.805, 492.19)
12.000                   3.0000                   3.0000                   1.1000                   10000                    4000.0                   0.0000                   20.000                   20.000                   20.000                   20.000                   20.185                   20.450                   20.000                   20.000                   20.000                   20.000                   20.185                   20.450                   20.000                   20.000                   20.000                   20.000                   20.185                   20.450                   20.000                   20.000                   20.000                   20.000                   20.185                   20.450                   20.000                   20.000                   20.000                   20.000                   20.185                   20.450                   20.000                   20.000                   20.000                   20.000                   20.183                   20.447                   20.000                   20.000                   20.000                   20.000                   20.143                   20.375                   20.000                   20.000                   20.000                   20.000                   20.024                   20.122                   20.000                   20.000                   20.000                   20.000                   20.006                   20.052                   20.000                   20.000                   20.000                   20.000                   20.002                   20.024
12.000                   3.0000                   3.0000                   1.1000                   10000                    4000.0                   5.0000                   32.394                   83.049                   413.79                   469.21                   501.06                   507.88                   32.258                   83.047                   412.55                   467.80                   499.94                   506.69                   32.235                   82.853                   408.00                   460.82                   491.14                   497.80                   32.167                   82.507                   408.63                   463.07                   494.79                   501.53                   32.263                   83.333                   421.84                   479.24                   512.89                   519.78                   31.903                   81.709                   408.36                   463.57                   495.49                   502.28                   29.907                   71.486                   337.16                   379.22                   404.29                   409.62                   24.031                   41.233                   142.66                   154.36                   160.31                   161.73                   22.311                   31.858                   87.786                   94.467                   97.471                   98.160                   29.085                   45.026                   99.639                   105.06                   106.70                   107.18
12.000                   3.0000                   3.0000                   1.1000                   10000                    4000.0                   10.000                   114.60                   225.87                   702.67                   781.04                   826.29                   835.41                   114.69                   226.56                   709.76                   795.10                   840.74                   849.74                   114.34                   225.71                   706.92                   791.41                   838.10                   847.28                   114.23                   225.57                   709.49                   796.54                   843.25                   852.26                   115.41                   228.09                   720.96                   811.20                   858.90                   868.06                   113.45                   224.26                   707.81                   796.17                   843.47                   852.59                   98.310                   191.40                   575.65                   634.76                   668.11                   674.93                   53.998                   92.322                   213.67                   226.42                   233.89                   236.11                   41.309                   63.724                   130.00                   136.53                   139.99                   140.94                   56.200                   81.156                   135.31                   139.14                   140.23                   140.54
12.000                   3.0000                   3.0000                   1.1000                   10000                    4000.0                   15.000                   232.02                   368.18                   908.45                   983.55                   1016.5                   1022.0                   232.44                   369.24                   908.95                   983.39                   1016.1                   1021.6                   232.00                   369.09                   912.16                   984.93                   1016.6                   1021.9                   231.98                   369.27                   934.03                   1008.4                   1037.3                   1041.7                   233.77                   371.85                   912.77                   977.69                   1005.7                   1010.4                   230.47                   367.58                   1053.4                   1134.9                   1155.4                   1157.5                   200.08                   317.20                   749.43                   820.40                   858.07                   865.15                   101.67                   148.29                   274.80                   288.05                   296.15                   298.30                   72.045                   97.471                   155.05                   160.17                   163.27                   164.23                   82.608                   102.98                   137.70                   140.04                   141.41                   141.84
12.000                   3.0000                   3.0000                   1.1000                   10000                    4000.0                   20.000                   345.00                   482.04                   924.67                   971.47                   993.54                   997.43                   345.54                   482.98                   933.57                   981.69                   1004.1                   1008.0                   345.53                   484.93                   951.88                   996.81                   1016.3                   1019.6                   345.89                   488.33                   1044.9                   1086.7                   1098.3                   1099.4                   347.68                   490.04                   1019.3                   1063.5                   1076.9                   1078.5                   344.22                   489.70                   1135.4                   1166.0                   1172.5                   1172.7                   302.37                   425.98                   871.10                   935.85                   966.40                   971.79                   153.65                   202.22                   334.12                   348.33                   357.01                   359.24                   103.23                   126.52                   181.07                   186.29                   189.49                   190.47                   100.96                   116.12                   144.62                   146.88                   148.23                   148.66
12.000                   3.0000                   3.0000                   1.1000                   10000                    4000.0                   25.000                   440.99                   569.24                   946.90                   979.24                   994.43                   997.12                   441.48                   570.12                   956.67                   989.11                   1004.0                   1006.6                   442.07                   574.41                   1022.9                   1057.6                   1068.4                   1069.6                   443.03                   580.22                   1091.2                   1116.9                   1122.9                   1123.1                   444.57                   581.56                   1091.8                   1117.4                   1123.2                   1123.4                   441.69                   582.96                   1135.6                   1155.5                   1159.2                   1159.0                   393.53                   516.09                   933.54                   975.98                   995.47                   998.91                   204.80                   254.67                   393.08                   408.22                   417.41                   419.71                   132.01                   154.36                   209.14                   214.56                   217.90                   218.90                   117.38                   130.34                   156.93                   159.20                   160.57                   161.01
12.000                   3.0000                   3.0000                   1.1000                   10000                    4000.0                   30.000                   518.07                   636.28                   990.76                   1014.7                   1024.4                   1025.9                   518.50                   637.08                   1002.4                   1027.7                   1037.0                   1038.3                   519.49                   642.32                   1065.1                   1088.5                   1094.4                   1094.7                   520.76                   648.33                   1100.5                   1118.7                   1122.4                   1122.3                   522.07                   649.77                   1103.9                   1121.4                   1124.9                   1124.7                   519.61                   650.95                   1123.0                   1138.2                   1140.8                   1140.4                   469.50                   588.48                   1021.6                   1057.8                   1069.3                   1070.6                   253.53                   304.80                   449.08                   464.93                   474.47                   476.80                   159.79                   182.14                   238.29                   243.95                   247.43                   248.47                   134.12                   146.35                   172.59                   174.89                   176.29                   176.74
12.000                   3.0000                   3.0000                   1.1000                   10000                    4000.0                   35.000                   582.70                   691.48                   1052.3                   1071.3                   1076.3                   1076.5                   583.07                   692.19                   1057.2                   1075.9                   1080.7                   1080.8                   584.21                   697.16                   1083.9                   1099.7                   1103.0                   1102.8                   585.50                   702.27                   1100.1                   1113.6                   1116.0                   1115.7                   586.59                   703.60                   1102.8                   1115.9                   1118.1                   1117.8                   584.43                   704.18                   1110.8                   1123.0                   1124.9                   1124.5                   535.15                   648.97                   1080.9                   1104.3                   1109.7                   1109.8                   299.91                   352.37                   501.06                   517.46                   527.27                   529.61                   187.29                   209.92                   267.79                   273.67                   277.29                   278.36                   151.71                   163.74                   190.08                   192.42                   193.85                   194.30
12.000                   3.0000                   3.0000                   1.1000                   10000                    4000.0                   40.000                   635.48                   736.95                   1087.7                   1100.5                   1102.8                   1102.5                   635.78                   737.72                   1089.0                   1101.6                   1103.8                   1103.5                   636.88                   741.93                   1098.1                   1109.4                   1111.2                   1110.8                   638.01                   746.29                   1105.2                   1115.6                   1117.0                   1116.6                   638.90                   747.56                   1106.8                   1116.9                   1118.3                   1117.8                   636.98                   747.53                   1109.5                   1119.4                   1120.7                   1120.2                   591.16                   698.92                   1096.0                   1111.2                   1114.0                   1113.7                   343.54                   396.85                   548.40                   565.22                   575.22                   577.56                   214.55                   237.64                   297.32                   303.42                   307.18                   308.28                   170.28                   182.33                   209.01                   211.40                   212.86                   213.32
12.000                   3.0000                   3.0000                   1.1000                   10000                    4000.0                   45.000                   678.36                   780.70                   1107.2                   1116.0                   1116.9                   1116.4                   678.61                   781.21                   1107.5                   1116.2                   1117.1                   1116.6                   679.58                   784.94                   1110.6                   1118.8                   1119.6                   1119.1                   680.48                   788.50                   1113.6                   1121.5                   1122.1                   1121.6                   681.19                   789.86                   1114.4                   1122.2                   1122.8                   1122.2                   679.53                   788.85                   1114.7                   1122.5                   1123.1                   1122.5                   638.54                   741.09                   1100.6                   1111.6                   1113.2                   1112.8                   384.50                   438.16                   591.10                   608.14                   618.25                   620.58                   241.57                   265.20                   326.66                   332.98                   336.87                   337.99                   189.65                   201.82                   228.95                   231.40                   232.89                   233.36
12.000                   3.0000                   3.0000                   1.1000                   10000                    4000.0                   50.000                   711.02                   825.76                   1120.0                   1126.3                   1126.5                   1125.8                   711.14                   826.02                   1120.1                   1126.4                   1126.6                   1125.9                   711.95                   829.02                   1121.5                   1127.7                   1127.8                   1127.1                   712.67                   831.66                   1122.9                   1128.9                   1129.0                   1128.3                   713.23                   832.87                   1123.4                   1129.3                   1129.4                   1128.7                   711.74                   831.01                   1122.7                   1128.7                   1128.8                   1128.1                   676.19                   780.15                   1104.9                   1113.5                   1114.5                   1113.9                   421.96                   475.53                   628.25                   645.47                   655.66                   657.97                   268.14                   292.29                   355.48                   362.00                   366.01                   367.15                   209.74                   222.07                   249.74                   252.24                   253.76                   254.24
12.000                   3.0000                   3.0000                   1.1000                   10000                    4000.0                   55.000                   736.21                   869.55                   1130.4                   1135.1                   1134.8                   1134.0                   736.20                   869.80                   1130.5                   1135.2                   1134.9                   1134.1                   736.96                   871.99                   1131.4                   1136.1                   1135.7                   1134.9                   737.58                   873.78                   1132.3                   1136.8                   1136.4                   1135.6                   738.13                   874.77                   1132.6                   1137.1                   1136.7                   1135.9                   736.49                   872.32                   1131.5                   1136.1                   1135.7                   1134.9                   704.49                   818.51                   1110.2                   1117.1                   1117.5                   1116.9                   455.77                   508.91                   660.37                   677.70                   687.94                   690.22                   294.09                   318.72                   383.49                   390.20                   394.32                   395.47                   230.35                   242.90                   271.11                   273.66                   275.22                   275.71
12.000                   3.0000                   3.0000                   1.1000                   10000                    4000.0                   60.000                   768.00                   911.46                   1140.9                   1144.3                   1143.5                   1142.6                   768.08                   911.72                   1140.9                   1144.3                   1143.5                   1142.7                   768.84                   913.23                   1141.5                   1144.8                   1144.0                   1143.2                   769.41                   914.36                   1141.9                   1145.3                   1144.4                   1143.6                   770.01                   915.15                   1142.2                   1145.5                   1144.6                   1143.8                   767.74                   912.21                   1140.7                   1144.1                   1143.3                   1142.4                   731.05                   855.74                   1116.0                   1121.4                   1121.3                   1120.6                   487.76                   540.23                   689.78                   707.14                   717.42                   719.69                   319.58                   344.65                   410.83                   417.69                   421.91                   423.07                   251.09                   263.84                   292.55                   295.15                   296.74                   297.23
12.000                   3.0000                   3.0000                   1.1000                   10000                    4000.0                   65.000                   808.22                   950.95                   1151.3                   1153.7                   1152.5                   1151.6                   808.68                   951.26                   1151.4                   1153.8                   1152.6                   1151.7                   809.52                   952.28                   1151.8                   1154.1                   1153.0                   1152.1                   810.07                   952.95                   1152.1                   1154.4                   1153.2                   1152.3                   810.79                   953.59                   1152.2                   1154.6                   1153.4                   1152.5                   807.31                   950.29                   1150.5                   1152.8                   1151.7                   1150.8                   755.41                   891.54                   1122.4                   1126.5                   1126.0                   1125.3                   517.41                   568.89                   715.72                   733.02                   743.34                   745.60                   344.46                   369.93                   437.30                   444.29                   448.58                   449.74                   271.99                   284.94                   314.09                   316.73                   318.34                   318.84
12.000                   3.0000                   3.0000                   1.1000                   10000                    4000.0                   70.000                   854.29                   987.61                   1162.6                   1164.2                   1162.7                   1161.7                   854.90                   987.93                   1162.7                   1164.2                   1162.8                   1161.8                   855.71                   988.62                   1163.0                   1164.5                   1163.0                   1162.1                   856.17                   989.00                   1163.1                   1164.7                   1163.2                   1162.2                   856.90                   989.52                   1163.3                   1164.8                   1163.3                   1162.3                   852.66                   985.91                   1161.1                   1162.7                   1161.3                   1160.3                   787.47                   925.17                   1129.1                   1132.2                   1131.4                   1130.5                   544.84                   595.09                   739.34                   756.71                   767.06                   769.30                   368.60                   394.41                   462.77                   469.87                   474.22                   475.39                   292.83                   305.95                   335.49                   338.17                   339.80                   340.30
12.000                   3.0000                   3.0000                   1.1000                   10000                    4000.0                   75.000                   904.18                   1022.4                   1174.4                   1175.3                   1173.5                   1172.5                   904.83                   1022.7                   1174.5                   1175.4                   1173.6                   1172.6                   905.51                   1023.2                   1174.8                   1175.6                   1173.8                   1172.8                   905.84                   1023.4                   1174.8                   1175.7                   1173.9                   1172.9                   906.51                   1023.8                   1175.0                   1175.8                   1174.0                   1173.0                   901.79                   1019.9                   1172.4                   1173.3                   1171.6                   1170.5                   824.59                   957.38                   1136.1                   1138.3                   1137.1                   1136.2                   570.81                   619.67                   761.45                   778.96                   789.33                   791.54                   392.27                   418.35                   487.59                   494.79                   499.20                   500.37                   313.63                   326.91                   356.81                   359.51                   361.16                   361.67