% Model:              batchmodel_COIL_N_12_COIL_kr_1.5_COIL_kh_3_COIL_kturn_1.7_FUNZ_freq_10000_FUNZ_I_eff_1000.mph
% Version:            COMSOL 5.6.0.280
% Date:               Feb 1 2022, 16:53
% Table:              Tabella 1 - GRIGLIA_T
% COIL_N                 COIL_kr                  COIL_kh                  COIL_kturn               FUNZ_freq                FUNZ_I_eff               Time (s)                 Temperatura (degC), Punto: (0, 0)Temperatura (degC), Punto: (15, 0)Temperatura (degC), Punto: (28.051, 0)Temperatura (degC), Punto: (29.025, 0)Temperatura (degC), Punto: (29.61, 0)Temperatura (degC), Punto: (29.805, 0)Temperatura (degC), Punto: (0, 62.5)Temperatura (degC), Punto: (15, 62.5)Temperatura (degC), Punto: (28.051, 62.5)Temperatura (degC), Punto: (29.025, 62.5)Temperatura (degC), Punto: (29.61, 62.5)Temperatura (degC), Punto: (29.805, 62.5)Temperatura (degC), Punto: (0, 125)Temperatura (degC), Punto: (15, 125)Temperatura (degC), Punto: (28.051, 125)Temperatura (degC), Punto: (29.025, 125)Temperatura (degC), Punto: (29.61, 125)Temperatura (degC), Punto: (29.805, 125)Temperatura (degC), Punto: (0, 187.5)Temperatura (degC), Punto: (15, 187.5)Temperatura (degC), Punto: (28.051, 187.5)Temperatura (degC), Punto: (29.025, 187.5)Temperatura (degC), Punto: (29.61, 187.5)Temperatura (degC), Punto: (29.805, 187.5)Temperatura (degC), Punto: (0, 250)Temperatura (degC), Punto: (15, 250)Temperatura (degC), Punto: (28.051, 250)Temperatura (degC), Punto: (29.025, 250)Temperatura (degC), Punto: (29.61, 250)Temperatura (degC), Punto: (29.805, 250)Temperatura (degC), Punto: (0, 312.5)Temperatura (degC), Punto: (15, 312.5)Temperatura (degC), Punto: (28.051, 312.5)Temperatura (degC), Punto: (29.025, 312.5)Temperatura (degC), Punto: (29.61, 312.5)Temperatura (degC), Punto: (29.805, 312.5)Temperatura (degC), Punto: (0, 375)Temperatura (degC), Punto: (15, 375)Temperatura (degC), Punto: (28.051, 375)Temperatura (degC), Punto: (29.025, 375)Temperatura (degC), Punto: (29.61, 375)Temperatura (degC), Punto: (29.805, 375)Temperatura (degC), Punto: (0, 437.5)Temperatura (degC), Punto: (15, 437.5)Temperatura (degC), Punto: (28.051, 437.5)Temperatura (degC), Punto: (29.025, 437.5)Temperatura (degC), Punto: (29.61, 437.5)Temperatura (degC), Punto: (29.805, 437.5)Temperatura (degC), Punto: (0, 468.75)Temperatura (degC), Punto: (15, 468.75)Temperatura (degC), Punto: (28.051, 468.75)Temperatura (degC), Punto: (29.025, 468.75)Temperatura (degC), Punto: (29.61, 468.75)Temperatura (degC), Punto: (29.805, 468.75)Temperatura (degC), Punto: (0, 492.19)Temperatura (degC), Punto: (15, 492.19)Temperatura (degC), Punto: (28.051, 492.19)Temperatura (degC), Punto: (29.025, 492.19)Temperatura (degC), Punto: (29.61, 492.19)Temperatura (degC), Punto: (29.805, 492.19)
12.000                   1.5000                   3.0000                   1.7000                   10000                    1000.0                   0.0000                   20.000                   20.000                   20.000                   20.000                   20.001                   20.018                   20.000                   20.000                   20.000                   20.000                   20.003                   20.036                   20.000                   20.000                   20.000                   20.000                   20.002                   20.030                   20.000                   20.000                   20.000                   20.000                   20.002                   20.025                   20.000                   20.000                   20.000                   20.000                   20.004                   20.037                   20.000                   20.000                   20.000                   20.000                   20.001                   20.019                   20.000                   20.000                   20.000                   20.000                   20.003                   20.035                   20.000                   20.000                   20.000                   20.000                   20.003                   20.033                   20.000                   20.000                   20.000                   20.000                   20.003                   20.036                   20.000                   20.000                   20.000                   20.000                   20.002                   20.023
12.000                   1.5000                   3.0000                   1.7000                   10000                    1000.0                   5.0000                   20.810                   22.960                   34.651                   36.148                   37.082                   37.394                   21.121                   24.358                   43.276                   45.826                   47.432                   47.963                   20.957                   23.693                   39.646                   41.786                   43.144                   43.597                   20.868                   23.298                   37.085                   38.918                   40.079                   40.469                   21.139                   24.430                   43.620                   46.202                   47.829                   48.367                   20.766                   22.844                   34.349                   35.854                   36.799                   37.116                   21.079                   24.186                   42.331                   44.781                   46.327                   46.840                   21.046                   24.044                   41.536                   43.901                   45.394                   45.889                   21.133                   24.399                   43.459                   46.027                   47.646                   48.181                   21.085                   23.731                   36.717                   38.382                   39.457                   39.818
12.000                   1.5000                   3.0000                   1.7000                   10000                    1000.0                   10.000                   25.318                   29.935                   44.181                   45.694                   46.630                   46.942                   27.127                   34.016                   57.092                   59.702                   61.333                   61.868                   26.181                   32.014                   51.344                   53.525                   54.893                   55.346                   25.715                   30.982                   48.020                   49.897                   51.083                   51.478                   27.244                   34.273                   57.785                   60.437                   62.093                   62.636                   25.207                   29.829                   44.430                   46.007                   46.985                   47.311                   26.854                   33.450                   55.591                   58.106                   59.679                   60.196                   26.677                   33.063                   54.448                   56.877                   58.396                   58.897                   27.199                   34.137                   57.408                   60.042                   61.688                   62.227                   26.409                   31.896                   48.297                   50.022                   51.113                   51.478
12.000                   1.5000                   3.0000                   1.7000                   10000                    1000.0                   15.000                   31.928                   37.974                   53.788                   55.349                   56.309                   56.628                   35.480                   44.400                   69.667                   72.329                   73.983                   74.524                   33.632                   41.225                   62.509                   64.746                   66.138                   66.596                   32.752                   39.660                   58.611                   60.555                   61.765                   62.166                   35.726                   44.839                   70.608                   73.313                   74.992                   75.540                   31.811                   37.940                   54.282                   55.906                   56.904                   57.234                   34.916                   43.451                   67.684                   70.248                   71.842                   72.365                   34.572                   42.846                   66.282                   68.761                   70.303                   70.809                   35.652                   44.627                   70.095                   72.781                   74.449                   74.994                   34.031                   41.195                   59.597                   61.391                   62.502                   62.871
12.000                   1.5000                   3.0000                   1.7000                   10000                    1000.0                   20.000                   39.647                   46.610                   63.469                   65.070                   66.051                   66.375                   44.870                   55.041                   81.658                   84.362                   86.037                   86.582                   42.161                   50.859                   73.395                   75.678                   77.090                   77.553                   40.897                   48.847                   69.028                   71.025                   72.255                   72.660                   45.249                   55.645                   82.799                   85.547                   87.246                   87.799                   39.552                   46.646                   64.081                   65.739                   66.752                   67.087                   44.018                   53.748                   79.269                   81.873                   83.487                   84.014                   43.515                   52.953                   77.655                   80.175                   81.737                   82.247                   45.176                   55.402                   82.216                   84.943                   86.631                   87.180                   42.809                   51.049                   70.710                   72.550                   73.676                   74.047
12.000                   1.5000                   3.0000                   1.7000                   10000                    1000.0                   25.000                   48.573                   55.930                   73.298                   74.927                   75.924                   76.252                   55.188                   65.862                   93.084                   95.822                   97.516                   98.065                   51.775                   60.937                   84.058                   86.372                   87.801                   88.269                   50.205                   58.603                   79.359                   81.389                   82.635                   83.044                   55.687                   66.600                   94.370                   97.151                   98.870                   99.427                   48.532                   56.047                   73.987                   75.667                   76.693                   77.031                   54.089                   64.303                   90.404                   93.040                   94.671                   95.202                   53.462                   63.372                   88.645                   91.195                   92.774                   93.289                   55.678                   66.403                   93.812                   96.572                   98.279                   98.832                   52.774                   61.472                   81.659                   83.519                   84.652                   85.025
12.000                   1.5000                   3.0000                   1.7000                   10000                    1000.0                   30.000                   57.499                   65.250                   83.128                   84.785                   85.797                   86.129                   65.506                   76.684                   104.51                   107.28                   108.99                   109.55                   61.390                   71.014                   94.721                   97.066                   98.512                   98.984                   59.513                   68.359                   89.690                   91.752                   93.015                   93.428                   66.126                   77.555                   105.94                   108.76                   110.49                   111.06                   57.513                   65.447                   83.892                   85.596                   86.634                   86.975                   64.160                   74.857                   101.54                   104.21                   105.86                   106.39                   63.408                   73.791                   99.635                   102.22                   103.81                   104.33                   66.179                   77.404                   105.41                   108.20                   109.93                   110.48                   62.739                   71.895                   92.608                   94.487                   95.629                   96.003
12.000                   1.5000                   3.0000                   1.7000                   10000                    1000.0                   35.000                   66.990                   74.968                   93.203                   94.887                   95.914                   96.251                   76.111                   87.542                   115.77                   118.58                   120.31                   120.87                   71.420                   81.287                   105.38                   107.75                   109.22                   109.69                   69.299                   78.384                   100.09                   102.18                   103.46                   103.88                   76.832                   88.521                   117.32                   120.17                   121.93                   122.49                   67.040                   75.209                   94.001                   95.728                   96.780                   97.126                   74.558                   85.501                   112.57                   115.27                   116.94                   117.48                   73.712                   84.335                   110.56                   113.17                   114.79                   115.31                   76.985                   88.459                   116.86                   119.68                   121.43                   121.99                   73.152                   82.539                   103.55                   105.44                   106.59                   106.96
12.000                   1.5000                   3.0000                   1.7000                   10000                    1000.0                   40.000                   76.996                   85.047                   103.50                   105.21                   106.25                   106.60                   86.977                   98.434                   126.89                   129.73                   131.48                   132.05                   81.829                   91.737                   116.03                   118.43                   119.92                   120.40                   79.518                   88.653                   110.54                   112.66                   113.96                   114.38                   87.782                   99.497                   128.52                   131.40                   133.18                   133.76                   77.065                   85.300                   104.29                   106.05                   107.11                   107.47                   85.254                   96.225                   123.51                   126.25                   127.94                   128.48                   84.341                   94.992                   121.42                   124.06                   125.70                   126.23                   88.069                   99.562                   128.17                   131.03                   132.80                   133.37                   83.971                   93.385                   114.47                   116.37                   117.53                   117.91
12.000                   1.5000                   3.0000                   1.7000                   10000                    1000.0                   45.000                   87.002                   95.126                   113.80                   115.54                   116.59                   116.94                   97.843                   109.33                   138.00                   140.87                   142.65                   143.22                   92.238                   102.19                   126.68                   129.12                   130.62                   131.11                   89.738                   98.923                   121.00                   123.14                   124.46                   124.88                   98.732                   110.47                   139.72                   142.64                   144.44                   145.02                   87.090                   95.391                   114.59                   116.36                   117.45                   117.80                   95.950                   106.95                   134.45                   137.22                   138.93                   139.49                   94.971                   105.65                   132.28                   134.96                   136.61                   137.15                   99.153                   110.67                   139.49                   142.38                   144.17                   144.75                   94.790                   104.23                   125.40                   127.31                   128.48                   128.86
12.000                   1.5000                   3.0000                   1.7000                   10000                    1000.0                   50.000                   97.348                   105.51                   124.39                   126.15                   127.23                   127.58                   108.71                   120.22                   149.15                   152.06                   153.86                   154.44                   102.83                   112.81                   137.53                   139.99                   141.52                   142.01                   100.22                   109.44                   131.72                   133.89                   135.22                   135.65                   109.65                   121.42                   150.92                   153.88                   155.71                   156.29                   97.467                   105.81                   125.22                   127.03                   128.13                   128.49                   106.72                   117.74                   145.50                   148.30                   150.04                   150.59                   105.72                   116.42                   143.29                   146.00                   147.68                   148.22                   110.22                   121.75                   150.81                   153.74                   155.56                   156.14                   105.71                   115.15                   136.39                   138.31                   139.49                   139.87
12.000                   1.5000                   3.0000                   1.7000                   10000                    1000.0                   55.000                   107.78                   115.98                   135.06                   136.85                   137.94                   138.29                   119.58                   131.11                   160.31                   163.26                   165.08                   165.67                   113.47                   123.48                   148.42                   150.92                   152.47                   152.96                   110.77                   120.01                   142.51                   144.70                   146.05                   146.49                   120.57                   132.36                   162.13                   165.13                   166.98                   167.57                   107.93                   116.31                   135.94                   137.78                   138.90                   139.27                   117.50                   128.55                   156.57                   159.41                   161.17                   161.73                   116.49                   127.22                   154.34                   157.09                   158.79                   159.34                   121.28                   132.83                   162.14                   165.11                   166.95                   167.54                   116.65                   126.08                   147.39                   149.33                   150.52                   150.90
12.000                   1.5000                   3.0000                   1.7000                   10000                    1000.0                   60.000                   118.21                   126.45                   145.73                   147.54                   148.64                   149.01                   130.45                   142.01                   171.46                   174.45                   176.30                   176.89                   124.11                   134.14                   159.32                   161.85                   163.41                   163.92                   121.31                   130.59                   153.29                   155.52                   156.89                   157.33                   131.49                   143.30                   173.34                   176.37                   178.25                   178.85                   118.40                   126.82                   146.66                   148.53                   149.67                   150.04                   128.28                   139.37                   167.64                   170.52                   172.30                   172.87                   127.27                   138.02                   165.39                   168.17                   169.90                   170.45                   132.34                   143.91                   173.47                   176.48                   178.34                   178.93                   127.59                   137.01                   158.40                   160.35                   161.54                   161.93
12.000                   1.5000                   3.0000                   1.7000                   10000                    1000.0                   65.000                   128.65                   136.91                   156.39                   158.23                   159.35                   159.72                   141.32                   152.90                   182.62                   185.65                   187.52                   188.12                   134.74                   144.81                   170.22                   172.78                   174.36                   174.87                   131.86                   141.17                   164.08                   166.33                   167.72                   168.17                   142.40                   154.24                   184.54                   187.62                   189.52                   190.12                   128.87                   137.32                   157.38                   159.28                   160.44                   160.82                   139.07                   150.18                   178.71                   181.62                   183.43                   184.01                   138.04                   148.82                   176.44                   179.26                   181.00                   181.56                   143.40                   154.99                   184.80                   187.84                   189.73                   190.33                   138.54                   147.95                   169.41                   171.37                   172.57                   172.96
12.000                   1.5000                   3.0000                   1.7000                   10000                    1000.0                   70.000                   139.08                   147.38                   167.06                   168.92                   170.06                   170.43                   152.19                   163.80                   193.78                   196.85                   198.74                   199.35                   145.38                   155.47                   181.11                   183.71                   185.31                   185.83                   142.41                   151.74                   174.86                   177.14                   178.55                   179.00                   153.32                   165.18                   195.75                   198.86                   200.79                   201.40                   139.33                   147.83                   168.10                   170.03                   171.21                   171.59                   149.85                   160.99                   189.78                   192.73                   194.56                   195.14                   148.81                   159.62                   187.48                   190.34                   192.11                   192.67                   154.47                   166.07                   196.13                   199.21                   201.12                   201.73                   149.48                   158.88                   180.41                   182.39                   183.60                   183.99
12.000                   1.5000                   3.0000                   1.7000                   10000                    1000.0                   75.000                   149.70                   158.07                   178.00                   179.90                   181.06                   181.43                   163.02                   174.71                   205.05                   208.16                   210.08                   210.69                   156.09                   166.26                   192.20                   194.84                   196.47                   196.99                   153.07                   162.48                   185.88                   188.20                   189.63                   190.09                   164.17                   176.12                   207.04                   210.20                   212.16                   212.78                   149.96                   158.53                   179.08                   181.04                   182.24                   182.62                   160.63                   171.85                   200.99                   203.99                   205.84                   206.43                   159.61                   170.50                   198.70                   201.59                   203.39                   203.96                   165.42                   177.10                   207.50                   210.63                   212.57                   213.18                   160.35                   169.78                   191.44                   193.44                   194.66                   195.06