% Model:              batchmodel_COIL_N_12_COIL_kr_1.5_COIL_kh_3_COIL_kturn_1.4_FUNZ_freq_6000_FUNZ_I_eff_1000.mph
% Version:            COMSOL 5.6.0.280
% Date:               Feb 1 2022, 15:45
% Table:              Tabella 1 - GRIGLIA_T
% COIL_N                 COIL_kr                  COIL_kh                  COIL_kturn               FUNZ_freq                FUNZ_I_eff               Time (s)                 Temperatura (degC), Punto: (0, 0)Temperatura (degC), Punto: (15, 0)Temperatura (degC), Punto: (27.483, 0)Temperatura (degC), Punto: (28.742, 0)Temperatura (degC), Punto: (29.497, 0)Temperatura (degC), Punto: (29.748, 0)Temperatura (degC), Punto: (0, 62.5)Temperatura (degC), Punto: (15, 62.5)Temperatura (degC), Punto: (27.483, 62.5)Temperatura (degC), Punto: (28.742, 62.5)Temperatura (degC), Punto: (29.497, 62.5)Temperatura (degC), Punto: (29.748, 62.5)Temperatura (degC), Punto: (0, 125)Temperatura (degC), Punto: (15, 125)Temperatura (degC), Punto: (27.483, 125)Temperatura (degC), Punto: (28.742, 125)Temperatura (degC), Punto: (29.497, 125)Temperatura (degC), Punto: (29.748, 125)Temperatura (degC), Punto: (0, 187.5)Temperatura (degC), Punto: (15, 187.5)Temperatura (degC), Punto: (27.483, 187.5)Temperatura (degC), Punto: (28.742, 187.5)Temperatura (degC), Punto: (29.497, 187.5)Temperatura (degC), Punto: (29.748, 187.5)Temperatura (degC), Punto: (0, 250)Temperatura (degC), Punto: (15, 250)Temperatura (degC), Punto: (27.483, 250)Temperatura (degC), Punto: (28.742, 250)Temperatura (degC), Punto: (29.497, 250)Temperatura (degC), Punto: (29.748, 250)Temperatura (degC), Punto: (0, 312.5)Temperatura (degC), Punto: (15, 312.5)Temperatura (degC), Punto: (27.483, 312.5)Temperatura (degC), Punto: (28.742, 312.5)Temperatura (degC), Punto: (29.497, 312.5)Temperatura (degC), Punto: (29.748, 312.5)Temperatura (degC), Punto: (0, 375)Temperatura (degC), Punto: (15, 375)Temperatura (degC), Punto: (27.483, 375)Temperatura (degC), Punto: (28.742, 375)Temperatura (degC), Punto: (29.497, 375)Temperatura (degC), Punto: (29.748, 375)Temperatura (degC), Punto: (0, 437.5)Temperatura (degC), Punto: (15, 437.5)Temperatura (degC), Punto: (27.483, 437.5)Temperatura (degC), Punto: (28.742, 437.5)Temperatura (degC), Punto: (29.497, 437.5)Temperatura (degC), Punto: (29.748, 437.5)Temperatura (degC), Punto: (0, 468.75)Temperatura (degC), Punto: (15, 468.75)Temperatura (degC), Punto: (27.483, 468.75)Temperatura (degC), Punto: (28.742, 468.75)Temperatura (degC), Punto: (29.497, 468.75)Temperatura (degC), Punto: (29.748, 468.75)Temperatura (degC), Punto: (0, 492.19)Temperatura (degC), Punto: (15, 492.19)Temperatura (degC), Punto: (27.483, 492.19)Temperatura (degC), Punto: (28.742, 492.19)Temperatura (degC), Punto: (29.497, 492.19)Temperatura (degC), Punto: (29.748, 492.19)
12.000                   1.5000                   3.0000                   1.4000                   6000.0                   1000.0                   0.0000                   20.000                   20.000                   20.000                   20.000                   20.001                   20.018                   20.000                   20.000                   20.000                   20.000                   20.002                   20.022                   20.000                   20.000                   20.000                   20.000                   20.002                   20.024                   20.000                   20.000                   20.000                   20.000                   20.001                   20.022                   20.000                   20.000                   20.000                   20.000                   20.001                   20.018                   20.000                   20.000                   20.000                   20.000                   20.002                   20.023                   20.000                   20.000                   20.000                   20.000                   20.002                   20.024                   20.000                   20.000                   20.000                   20.000                   20.001                   20.021                   20.000                   20.000                   20.000                   20.000                   20.002                   20.023                   20.000                   20.000                   20.000                   20.000                   20.001                   20.012
12.000                   1.5000                   3.0000                   1.4000                   6000.0                   1000.0                   5.0000                   20.998                   23.424                   36.521                   38.863                   40.365                   40.873                   21.069                   23.746                   38.634                   41.349                   43.100                   43.690                   21.121                   23.945                   39.615                   42.466                   44.303                   44.920                   21.059                   23.709                   38.408                   41.088                   42.816                   43.399                   20.996                   23.426                   36.550                   38.897                   40.403                   40.913                   21.078                   23.785                   38.834                   41.580                   43.351                   43.947                   21.120                   23.941                   39.600                   42.449                   44.285                   44.902                   21.049                   23.666                   38.159                   40.798                   42.500                   43.074                   21.066                   23.781                   39.036                   41.827                   43.628                   44.234                   20.907                   23.040                   33.437                   35.244                   36.403                   36.803
12.000                   1.5000                   3.0000                   1.4000                   6000.0                   1000.0                   10.000                   25.446                   31.006                   48.178                   50.627                   52.175                   52.687                   25.762                   31.834                   51.111                   53.937                   55.736                   56.329                   26.006                   32.394                   52.678                   55.644                   57.531                   58.151                   25.720                   31.731                   50.780                   53.569                   55.345                   55.931                   25.447                   31.015                   48.216                   50.670                   52.222                   52.736                   25.802                   31.933                   51.412                   54.269                   56.088                   56.688                   26.000                   32.383                   52.650                   55.614                   57.499                   58.119                   25.663                   31.606                   50.403                   53.150                   54.899                   55.477                   25.729                   31.856                   51.499                   54.395                   56.242                   56.851                   25.234                   30.700                   46.973                   49.088                   50.359                   50.774
12.000                   1.5000                   3.0000                   1.4000                   6000.0                   1000.0                   15.000                   32.413                   39.941                   58.908                   61.423                   62.985                   63.495                   33.029                   41.192                   62.350                   65.245                   67.057                   67.647                   33.521                   42.094                   64.336                   67.374                   69.273                   69.889                   32.946                   41.031                   61.949                   64.808                   66.596                   67.179                   32.418                   39.954                   58.951                   61.472                   63.037                   63.549                   33.109                   41.346                   62.719                   65.645                   67.477                   68.074                   33.510                   42.074                   64.298                   67.334                   69.232                   69.848                   32.820                   40.817                   61.466                   64.283                   66.045                   66.619                   32.994                   41.233                   62.783                   65.755                   67.618                   68.225                   32.562                   40.792                   60.896                   63.195                   64.487                   64.877
12.000                   1.5000                   3.0000                   1.4000                   6000.0                   1000.0                   20.000                   41.642                   49.778                   69.232                   71.785                   73.364                   73.879                   42.498                   51.287                   72.939                   75.875                   77.705                   78.300                   43.201                   52.419                   75.164                   78.244                   80.162                   80.783                   42.380                   51.089                   72.500                   75.399                   77.206                   77.793                   41.649                   49.795                   69.278                   71.836                   73.419                   73.935                   42.611                   51.476                   73.344                   76.312                   78.162                   78.763                   43.183                   52.393                   75.120                   78.197                   80.114                   80.735                   42.183                   50.799                   71.939                   74.796                   76.576                   77.154                   42.710                   51.614                   73.706                   76.724                   78.608                   79.219                   43.214                   52.813                   74.210                   76.539                   77.832                   78.216
12.000                   1.5000                   3.0000                   1.4000                   6000.0                   1000.0                   25.000                   51.111                   59.715                   79.567                   82.155                   83.752                   84.271                   52.185                   61.452                   83.506                   86.481                   88.331                   88.930                   53.082                   62.791                   85.944                   89.063                   91.002                   91.628                   52.037                   61.222                   83.034                   85.971                   87.798                   88.390                   51.122                   59.734                   79.615                   82.208                   83.809                   84.330                   52.328                   61.673                   83.944                   86.950                   88.821                   89.426                   53.059                   62.759                   85.893                   89.010                   90.948                   91.574                   51.775                   60.864                   82.405                   85.299                   87.098                   87.682                   52.714                   62.132                   84.672                   87.731                   89.637                   90.254                   54.236                   64.973                   87.362                   89.702                   90.994                   91.374
12.000                   1.5000                   3.0000                   1.4000                   6000.0                   1000.0                   30.000                   61.165                   69.897                   89.960                   92.578                   94.195                   94.720                   62.395                   71.784                   94.052                   97.059                   98.932                   99.538                   63.433                   73.262                   96.630                   99.784                   101.75                   102.38                   62.224                   71.531                   93.558                   96.527                   98.376                   98.975                   61.177                   69.917                   90.009                   92.632                   94.253                   94.779                   62.559                   72.025                   94.511                   97.550                   99.444                   100.06                   63.405                   73.225                   96.574                   99.726                   101.69                   102.32                   61.921                   71.133                   92.889                   95.815                   97.637                   98.227                   63.430                   73.004                   95.789                   98.882                   100.81                   101.43                   66.159                   77.425                   100.07                   102.37                   103.66                   104.04
12.000                   1.5000                   3.0000                   1.4000                   6000.0                   1000.0                   35.000                   71.401                   80.231                   100.53                   103.18                   104.82                   105.35                   72.743                   82.229                   104.74                   107.79                   109.69                   110.30                   73.884                   83.810                   107.43                   110.63                   112.62                   113.26                   72.556                   81.960                   104.23                   107.24                   109.12                   109.72                   71.414                   80.252                   100.58                   103.24                   104.88                   105.41                   72.922                   82.486                   105.22                   108.30                   110.22                   110.84                   73.852                   83.769                   107.37                   110.56                   112.55                   113.19                   72.258                   81.567                   103.57                   106.53                   108.38                   108.98                   74.362                   84.049                   107.09                   110.22                   112.18                   112.81                   78.135                   89.746                   112.50                   114.78                   116.05                   116.43
12.000                   1.5000                   3.0000                   1.4000                   6000.0                   1000.0                   40.000                   81.809                   90.711                   111.26                   113.96                   115.62                   116.16                   83.222                   92.782                   115.57                   118.66                   120.59                   121.21                   84.431                   94.431                   118.34                   121.58                   123.60                   124.25                   83.025                   92.502                   115.05                   118.10                   120.01                   120.62                   81.822                   90.732                   111.31                   114.01                   115.68                   116.22                   83.411                   93.048                   116.06                   119.18                   121.13                   121.76                   84.396                   94.387                   118.27                   121.52                   123.54                   124.18                   82.776                   92.158                   114.43                   117.44                   119.32                   119.92                   85.500                   95.260                   118.56                   121.74                   123.72                   124.36                   90.162                   101.94                   124.67                   126.92                   128.17                   128.54
12.000                   1.5000                   3.0000                   1.4000                   6000.0                   1000.0                   45.000                   92.217                   101.19                   121.99                   124.73                   126.42                   126.97                   93.702                   103.33                   126.40                   129.54                   131.50                   132.13                   94.977                   105.05                   129.25                   132.54                   134.59                   135.25                   93.494                   103.04                   125.86                   128.96                   130.90                   131.52                   92.230                   101.21                   122.05                   124.79                   126.48                   127.03                   93.900                   103.61                   126.90                   130.07                   132.05                   132.69                   94.939                   105.00                   129.18                   132.47                   134.52                   135.18                   93.294                   102.75                   125.29                   128.35                   130.25                   130.86                   96.637                   106.47                   130.03                   133.25                   135.26                   135.91                   102.19                   114.14                   136.85                   139.06                   140.29                   140.66
12.000                   1.5000                   3.0000                   1.4000                   6000.0                   1000.0                   50.000                   102.64                   111.69                   132.75                   135.52                   137.24                   137.80                   104.19                   113.90                   137.25                   140.43                   142.42                   143.06                   105.53                   115.68                   140.17                   143.51                   145.59                   146.26                   103.97                   113.60                   136.70                   139.84                   141.81                   142.43                   102.65                   111.71                   132.80                   135.58                   137.31                   137.86                   104.40                   114.19                   137.76                   140.98                   142.99                   143.63                   105.49                   115.63                   140.10                   143.44                   145.52                   146.18                   103.83                   113.36                   136.17                   139.27                   141.21                   141.83                   107.79                   117.70                   141.52                   144.79                   146.83                   147.48                   114.21                   126.33                   149.03                   151.22                   152.43                   152.79
12.000                   1.5000                   3.0000                   1.4000                   6000.0                   1000.0                   55.000                   113.29                   122.46                   143.85                   146.68                   148.42                   148.99                   114.87                   124.71                   148.40                   151.64                   153.66                   154.30                   116.24                   126.52                   151.36                   154.75                   156.87                   157.54                   114.65                   124.40                   147.85                   151.04                   153.04                   153.67                   113.30                   122.48                   143.90                   146.73                   148.49                   149.05                   115.08                   125.00                   148.92                   152.19                   154.23                   154.88                   116.20                   126.47                   151.30                   154.68                   156.80                   157.47                   114.65                   124.30                   147.46                   150.61                   152.58                   153.21                   119.15                   129.16                   153.30                   156.61                   158.68                   159.34                   126.20                   138.49                   161.38                   163.59                   164.80                   165.16
12.000                   1.5000                   3.0000                   1.4000                   6000.0                   1000.0                   60.000                   123.94                   133.23                   154.96                   157.83                   159.61                   160.18                   125.55                   135.51                   159.56                   162.84                   164.90                   165.55                   126.95                   137.35                   162.56                   166.00                   168.15                   168.83                   125.33                   135.20                   158.99                   162.24                   164.27                   164.91                   123.96                   133.25                   155.01                   157.89                   159.67                   160.24                   125.77                   135.81                   160.08                   163.40                   165.47                   166.13                   126.91                   137.31                   162.49                   165.93                   168.08                   168.76                   125.47                   135.24                   158.75                   161.95                   163.94                   164.58                   130.50                   140.63                   165.08                   168.43                   170.53                   171.20                   138.19                   150.64                   173.74                   175.96                   177.18                   177.53
12.000                   1.5000                   3.0000                   1.4000                   6000.0                   1000.0                   65.000                   134.60                   144.00                   166.06                   168.98                   170.79                   171.36                   136.24                   146.32                   170.71                   174.05                   176.13                   176.80                   137.65                   148.19                   173.75                   177.25                   179.43                   180.12                   136.01                   146.00                   170.14                   173.44                   175.50                   176.15                   134.61                   144.03                   166.11                   169.04                   170.85                   171.43                   136.45                   146.62                   171.24                   174.61                   176.72                   177.39                   137.62                   148.14                   173.69                   177.18                   179.36                   180.05                   136.29                   146.18                   170.03                   173.28                   175.31                   175.96                   141.86                   152.09                   176.85                   180.26                   182.38                   183.06                   150.17                   162.80                   186.10                   188.33                   189.55                   189.90
12.000                   1.5000                   3.0000                   1.4000                   6000.0                   1000.0                   70.000                   145.25                   154.78                   177.16                   180.13                   181.97                   182.55                   146.92                   157.12                   181.87                   185.26                   187.37                   188.04                   148.36                   159.02                   184.94                   188.49                   190.70                   191.40                   146.68                   156.81                   181.29                   184.64                   186.73                   187.39                   145.26                   154.80                   177.22                   180.19                   182.03                   182.62                   147.14                   157.43                   182.40                   185.83                   187.96                   188.64                   148.33                   158.98                   184.88                   188.42                   190.64                   191.33                   147.11                   157.13                   181.32                   184.62                   186.68                   187.33                   153.22                   163.56                   188.63                   192.08                   194.24                   194.92                   162.16                   174.96                   198.45                   200.70                   201.92                   202.28
12.000                   1.5000                   3.0000                   1.4000                   6000.0                   1000.0                   75.000                   155.91                   165.56                   188.28                   191.30                   193.17                   193.76                   157.61                   167.94                   193.04                   196.48                   198.63                   199.31                   159.08                   169.87                   196.15                   199.75                   202.00                   202.70                   157.37                   167.62                   192.46                   195.85                   197.98                   198.65                   155.93                   165.58                   188.34                   191.36                   193.23                   193.83                   157.83                   168.25                   193.58                   197.05                   199.22                   199.91                   159.05                   169.83                   196.09                   199.69                   201.93                   202.64                   157.94                   168.08                   192.62                   195.97                   198.07                   198.73                   164.58                   175.03                   200.42                   203.91                   206.10                   206.79                   174.13                   187.10                   210.80                   213.07                   214.29                   214.64