% Model:              batchmodel_COIL_N_12_COIL_kr_2.25_COIL_kh_2_COIL_kturn_1.1_FUNZ_freq_10000_FUNZ_I_eff_4000.mph
% Version:            COMSOL 5.6.0.280
% Date:               Feb 1 2022, 20:12
% Table:              Tabella 1 - GRIGLIA_T
% COIL_N                 COIL_kr                  COIL_kh                  COIL_kturn               FUNZ_freq                FUNZ_I_eff               Time (s)                 Temperatura (degC), Punto: (0, 0)Temperatura (degC), Punto: (15, 0)Temperatura (degC), Punto: (28.051, 0)Temperatura (degC), Punto: (29.025, 0)Temperatura (degC), Punto: (29.61, 0)Temperatura (degC), Punto: (29.805, 0)Temperatura (degC), Punto: (0, 62.5)Temperatura (degC), Punto: (15, 62.5)Temperatura (degC), Punto: (28.051, 62.5)Temperatura (degC), Punto: (29.025, 62.5)Temperatura (degC), Punto: (29.61, 62.5)Temperatura (degC), Punto: (29.805, 62.5)Temperatura (degC), Punto: (0, 125)Temperatura (degC), Punto: (15, 125)Temperatura (degC), Punto: (28.051, 125)Temperatura (degC), Punto: (29.025, 125)Temperatura (degC), Punto: (29.61, 125)Temperatura (degC), Punto: (29.805, 125)Temperatura (degC), Punto: (0, 187.5)Temperatura (degC), Punto: (15, 187.5)Temperatura (degC), Punto: (28.051, 187.5)Temperatura (degC), Punto: (29.025, 187.5)Temperatura (degC), Punto: (29.61, 187.5)Temperatura (degC), Punto: (29.805, 187.5)Temperatura (degC), Punto: (0, 250)Temperatura (degC), Punto: (15, 250)Temperatura (degC), Punto: (28.051, 250)Temperatura (degC), Punto: (29.025, 250)Temperatura (degC), Punto: (29.61, 250)Temperatura (degC), Punto: (29.805, 250)Temperatura (degC), Punto: (0, 312.5)Temperatura (degC), Punto: (15, 312.5)Temperatura (degC), Punto: (28.051, 312.5)Temperatura (degC), Punto: (29.025, 312.5)Temperatura (degC), Punto: (29.61, 312.5)Temperatura (degC), Punto: (29.805, 312.5)Temperatura (degC), Punto: (0, 375)Temperatura (degC), Punto: (15, 375)Temperatura (degC), Punto: (28.051, 375)Temperatura (degC), Punto: (29.025, 375)Temperatura (degC), Punto: (29.61, 375)Temperatura (degC), Punto: (29.805, 375)Temperatura (degC), Punto: (0, 437.5)Temperatura (degC), Punto: (15, 437.5)Temperatura (degC), Punto: (28.051, 437.5)Temperatura (degC), Punto: (29.025, 437.5)Temperatura (degC), Punto: (29.61, 437.5)Temperatura (degC), Punto: (29.805, 437.5)Temperatura (degC), Punto: (0, 468.75)Temperatura (degC), Punto: (15, 468.75)Temperatura (degC), Punto: (28.051, 468.75)Temperatura (degC), Punto: (29.025, 468.75)Temperatura (degC), Punto: (29.61, 468.75)Temperatura (degC), Punto: (29.805, 468.75)Temperatura (degC), Punto: (0, 492.19)Temperatura (degC), Punto: (15, 492.19)Temperatura (degC), Punto: (28.051, 492.19)Temperatura (degC), Punto: (29.025, 492.19)Temperatura (degC), Punto: (29.61, 492.19)Temperatura (degC), Punto: (29.805, 492.19)
12.000                   2.2500                   2.0000                   1.1000                   10000                    4000.0                   0.0000                   20.000                   20.000                   20.000                   20.002                   20.391                   20.782                   20.000                   20.000                   20.000                   20.002                   20.391                   20.782                   20.000                   20.000                   20.000                   20.002                   20.391                   20.782                   20.000                   20.000                   20.000                   20.002                   20.390                   20.781                   20.000                   20.000                   20.000                   20.001                   20.312                   20.662                   20.000                   20.000                   20.000                   20.000                   20.020                   20.111                   20.000                   20.000                   20.000                   20.000                   20.001                   20.014                   20.000                   20.000                   20.000                   20.000                   20.000                   20.003                   20.000                   20.000                   20.000                   20.000                   20.000                   20.001                   20.000                   20.000                   20.000                   20.000                   20.000                   20.001
12.000                   2.2500                   2.0000                   1.1000                   10000                    4000.0                   5.0000                   41.674                   131.56                   792.66                   959.36                   1030.2                   1041.7                   41.492                   131.98                   809.53                   981.29                   1050.9                   1062.0                   41.497                   131.71                   794.74                   961.91                   1032.9                   1044.4                   41.642                   132.17                   795.81                   963.62                   1034.5                   1046.0                   38.016                   114.90                   635.65                   735.57                   789.76                   800.44                   24.202                   41.669                   129.11                   139.26                   145.54                   147.37                   21.423                   26.954                   47.729                   49.506                   50.518                   50.824                   20.736                   23.389                   31.474                   31.951                   32.204                   32.272                   21.028                   25.109                   41.663                   42.710                   42.709                   42.719                   21.323                   25.940                   40.410                   41.529                   41.294                   41.252
12.000                   2.2500                   2.0000                   1.1000                   10000                    4000.0                   10.000                   166.55                   324.95                   887.15                   945.53                   971.44                   975.99                   167.25                   332.43                   1093.5                   1142.3                   1154.0                   1154.9                   166.65                   327.27                   992.33                   1059.6                   1079.7                   1082.2                   167.05                   329.13                   1012.2                   1073.1                   1090.8                   1092.8                   146.06                   287.30                   877.65                   972.95                   1014.4                   1021.4                   53.014                   87.694                   187.09                   197.56                   204.00                   205.82                   29.483                   37.395                   54.222                   55.589                   56.408                   56.676                   24.823                   28.066                   33.512                   33.858                   34.059                   34.124                   25.733                   29.866                   35.988                   36.210                   36.325                   36.359                   26.495                   30.558                   35.633                   35.775                   35.839                   35.857
12.000                   2.2500                   2.0000                   1.1000                   10000                    4000.0                   15.000                   307.51                   469.59                   1046.6                   1086.5                   1097.0                   1098.0                   310.28                   482.75                   1127.2                   1151.8                   1156.7                   1156.7                   308.14                   473.43                   1092.5                   1124.9                   1132.5                   1132.9                   308.83                   476.65                   1106.2                   1135.1                   1141.4                   1141.6                   274.59                   427.31                   1107.8                   1152.8                   1163.4                   1164.2                   97.786                   137.81                   245.11                   256.32                   263.20                   265.08                   38.733                   45.728                   60.726                   62.056                   62.866                   63.133                   28.896                   31.296                   35.520                   35.840                   36.031                   36.094                   29.104                   31.390                   34.576                   34.748                   34.846                   34.877                   29.877                   32.015                   34.555                   34.653                   34.704                   34.720
12.000                   2.2500                   2.0000                   1.1000                   10000                    4000.0                   20.000                   423.21                   578.81                   1129.2                   1148.7                   1152.4                   1152.1                   426.71                   590.41                   1150.2                   1165.8                   1168.4                   1168.0                   424.00                   581.96                   1137.7                   1155.7                   1159.0                   1158.7                   424.60                   584.61                   1143.0                   1160.0                   1163.0                   1162.6                   385.06                   538.37                   1155.1                   1177.6                   1181.9                   1181.7                   145.86                   188.38                   301.90                   313.85                   321.18                   323.13                   47.344                   53.720                   68.156                   69.499                   70.321                   70.593                   32.049                   33.906                   37.571                   37.883                   38.072                   38.134                   31.019                   32.393                   34.617                   34.775                   34.869                   34.899                   31.588                   32.778                   34.359                   34.442                   34.489                   34.504
12.000                   2.2500                   2.0000                   1.1000                   10000                    4000.0                   25.000                   517.52                   664.97                   1163.4                   1175.3                   1176.8                   1176.2                   520.81                   673.76                   1171.5                   1182.3                   1183.5                   1182.9                   518.24                   667.35                   1165.8                   1177.4                   1178.8                   1178.2                   518.60                   669.01                   1167.7                   1179.1                   1180.4                   1179.8                   477.41                   626.40                   1161.0                   1174.9                   1176.9                   1176.4                   193.54                   237.50                   355.97                   368.55                   376.23                   378.23                   55.863                   61.981                   76.354                   77.722                   78.562                   78.839                   34.659                   36.225                   39.623                   39.933                   40.121                   40.185                   32.360                   33.316                   35.142                   35.295                   35.387                   35.418                   32.602                   33.343                   34.502                   34.579                   34.624                   34.639
12.000                   2.2500                   2.0000                   1.1000                   10000                    4000.0                   30.000                   593.94                   734.63                   1189.8                   1198.4                   1199.0                   1198.2                   596.64                   741.90                   1194.1                   1202.5                   1202.9                   1202.1                   594.55                   736.73                   1190.9                   1199.4                   1199.9                   1199.2                   594.67                   737.84                   1191.5                   1200.0                   1200.5                   1199.7                   553.77                   695.62                   1168.4                   1178.4                   1179.3                   1178.6                   238.99                   283.95                   406.15                   419.19                   427.10                   429.11                   64.702                   70.783                   85.331                   86.730                   87.589                   87.873                   36.955                   38.386                   41.674                   41.984                   42.174                   42.237                   33.469                   34.247                   35.913                   36.064                   36.156                   36.187                   33.313                   33.860                   34.840                   34.915                   34.959                   34.974
12.000                   2.2500                   2.0000                   1.1000                   10000                    4000.0                   35.000                   652.59                   805.70                   1218.7                   1225.8                   1225.7                   1224.9                   654.51                   811.25                   1221.5                   1228.4                   1228.3                   1227.4                   652.94                   807.00                   1219.3                   1226.2                   1226.2                   1225.3                   652.92                   807.43                   1219.2                   1226.1                   1226.1                   1225.2                   614.35                   755.22                   1180.7                   1188.5                   1188.7                   1188.0                   281.02                   326.55                   451.13                   464.44                   472.49                   474.49                   74.169                   80.313                   95.129                   96.561                   97.441                   97.732                   39.122                   40.499                   43.755                   44.066                   44.257                   44.321                   34.518                   35.223                   36.827                   36.978                   37.070                   37.101                   33.943                   34.409                   35.315                   35.389                   35.433                   35.448
12.000                   2.2500                   2.0000                   1.1000                   10000                    4000.0                   40.000                   702.03                   881.09                   1250.1                   1256.0                   1255.6                   1254.6                   703.13                   884.80                   1251.9                   1257.7                   1257.3                   1256.3                   702.05                   881.56                   1250.3                   1256.2                   1255.7                   1254.8                   701.94                   881.28                   1249.7                   1255.5                   1255.1                   1254.1                   666.46                   813.04                   1195.2                   1201.3                   1201.1                   1200.2                   320.93                   366.86                   493.11                   506.65                   514.79                   516.79                   84.025                   90.263                   105.37                   106.84                   107.74                   108.04                   41.261                   42.612                   45.862                   46.176                   46.369                   46.434                   35.562                   36.230                   37.803                   37.954                   38.047                   38.078                   34.567                   34.989                   35.856                   35.930                   35.974                   35.989
12.000                   2.2500                   2.0000                   1.1000                   10000                    4000.0                   45.000                   743.02                   956.39                   1288.3                   1293.4                   1292.5                   1291.5                   744.13                   958.80                   1289.6                   1294.6                   1293.8                   1292.7                   743.01                   956.52                   1288.3                   1293.4                   1292.6                   1291.5                   742.49                   955.63                   1287.2                   1292.3                   1291.5                   1290.4                   703.98                   873.35                   1214.4                   1219.5                   1218.9                   1218.0                   357.01                   402.96                   529.75                   543.43                   551.63                   553.62                   94.519                   100.87                   116.30                   117.80                   118.72                   119.02                   43.442                   44.790                   48.057                   48.373                   48.568                   48.633                   36.644                   37.298                   38.865                   39.016                   39.109                   39.140                   35.239                   35.644                   36.497                   36.570                   36.615                   36.630
12.000                   2.2500                   2.0000                   1.1000                   10000                    4000.0                   50.000                   807.64                   1029.2                   1327.2                   1331.4                   1330.1                   1328.9                   808.88                   1030.7                   1328.1                   1332.2                   1331.0                   1329.8                   807.71                   1029.1                   1327.2                   1331.4                   1330.1                   1328.9                   806.58                   1027.7                   1325.8                   1330.0                   1328.8                   1327.6                   743.38                   932.07                   1235.9                   1240.1                   1239.2                   1238.2                   391.19                   436.97                   563.64                   577.36                   585.59                   587.55                   105.28                   111.74                   127.50                   129.03                   129.97                   130.28                   45.676                   47.026                   50.311                   50.630                   50.826                   50.892                   37.756                   38.402                   39.965                   40.117                   40.210                   40.241                   35.947                   36.341                   37.184                   37.258                   37.302                   37.317
12.000                   2.2500                   2.0000                   1.1000                   10000                    4000.0                   55.000                   893.64                   1099.3                   1366.2                   1369.4                   1367.6                   1366.3                   895.06                   1100.2                   1366.7                   1369.9                   1368.1                   1366.8                   893.87                   1099.2                   1366.1                   1369.3                   1367.6                   1366.2                   891.96                   1097.4                   1364.7                   1367.9                   1366.2                   1364.9                   785.72                   989.15                   1259.6                   1263.1                   1261.9                   1260.8                   423.50                   468.92                   594.86                   608.54                   616.74                   618.68                   116.28                   122.88                   138.96                   140.53                   141.49                   141.80                   47.962                   49.318                   52.625                   52.947                   53.145                   53.211                   38.898                   39.541                   41.104                   41.256                   41.350                   41.381                   36.691                   37.079                   37.917                   37.990                   38.034                   38.049
12.000                   2.2500                   2.0000                   1.1000                   10000                    4000.0                   60.000                   982.18                   1160.6                   1391.5                   1393.4                   1391.2                   1389.7                   983.18                   1161.0                   1391.7                   1393.6                   1391.5                   1390.0                   982.31                   1160.4                   1391.4                   1393.3                   1391.1                   1389.7                   980.07                   1158.5                   1390.3                   1392.3                   1390.1                   1388.7                   854.09                   1042.2                   1285.8                   1288.7                   1287.2                   1286.0                   452.69                   497.54                   621.79                   635.42                   643.56                   645.46                   127.64                   134.36                   150.76                   152.35                   153.33                   153.65                   50.371                   51.735                   55.068                   55.392                   55.591                   55.658                   40.105                   40.748                   42.314                   42.466                   42.560                   42.591                   37.506                   37.891                   38.727                   38.800                   38.844                   38.859
12.000                   2.2500                   2.0000                   1.1000                   10000                    4000.0                   65.000                   1062.9                   1215.3                   1411.4                   1412.4                   1409.9                   1408.3                   1063.5                   1215.5                   1411.6                   1412.6                   1410.0                   1408.5                   1062.9                   1215.1                   1411.4                   1412.3                   1409.8                   1408.3                   1060.5                   1213.1                   1410.5                   1411.5                   1409.0                   1407.5                   923.58                   1092.2                   1312.1                   1314.3                   1312.4                   1311.2                   480.18                   524.33                   646.57                   660.11                   668.18                   670.04                   139.13                   145.97                   162.67                   164.30                   165.29                   165.62                   52.866                   54.240                   57.598                   57.924                   58.125                   58.192                   41.355                   42.000                   43.569                   43.721                   43.815                   43.847                   38.364                   38.749                   39.583                   39.656                   39.700                   39.715
12.000                   2.2500                   2.0000                   1.1000                   10000                    4000.0                   70.000                   1136.4                   1264.0                   1427.2                   1427.6                   1424.8                   1423.3                   1136.7                   1264.1                   1427.4                   1427.7                   1425.0                   1423.4                   1136.3                   1263.8                   1427.2                   1427.6                   1424.8                   1423.2                   1133.7                   1261.9                   1426.4                   1426.7                   1424.0                   1422.4                   993.15                   1139.6                   1338.0                   1339.6                   1337.4                   1336.1                   506.16                   549.47                   669.45                   682.86                   690.84                   692.67                   150.74                   157.69                   174.69                   176.34                   177.35                   177.69                   55.440                   56.826                   60.209                   60.538                   60.740                   60.808                   42.647                   43.292                   44.866                   45.019                   45.113                   45.144                   39.264                   39.647                   40.481                   40.553                   40.598                   40.612
12.000                   2.2500                   2.0000                   1.1000                   10000                    4000.0                   75.000                   1196.5                   1303.0                   1443.1                   1443.2                   1440.3                   1438.7                   1196.7                   1303.0                   1443.2                   1443.4                   1440.4                   1438.8                   1196.4                   1302.8                   1443.1                   1443.2                   1440.3                   1438.7                   1193.8                   1300.9                   1441.9                   1442.1                   1439.1                   1437.5                   1053.9                   1181.9                   1360.8                   1361.7                   1359.2                   1357.8                   529.84                   572.10                   689.59                   702.82                   710.73                   712.52                   162.43                   169.49                   186.76                   188.44                   189.47                   189.81                   58.157                   59.553                   62.963                   63.294                   63.498                   63.567                   44.012                   44.659                   46.237                   46.391                   46.485                   46.517                   40.232                   40.616                   41.448                   41.521                   41.565                   41.580