% Model:              batchmodel_COIL_N_12_COIL_kr_3_COIL_kh_2_COIL_kturn_1.1_FUNZ_freq_10000_FUNZ_I_eff_1000.mph
% Version:            COMSOL 5.6.0.280
% Date:               Feb 2 2022, 01:42
% Table:              Tabella 1 - GRIGLIA_T
% COIL_N                 COIL_kr                  COIL_kh                  COIL_kturn               FUNZ_freq                FUNZ_I_eff               Time (s)                 Temperatura (degC), Punto: (0, 0)Temperatura (degC), Punto: (15, 0)Temperatura (degC), Punto: (28.051, 0)Temperatura (degC), Punto: (29.025, 0)Temperatura (degC), Punto: (29.61, 0)Temperatura (degC), Punto: (29.805, 0)Temperatura (degC), Punto: (0, 62.5)Temperatura (degC), Punto: (15, 62.5)Temperatura (degC), Punto: (28.051, 62.5)Temperatura (degC), Punto: (29.025, 62.5)Temperatura (degC), Punto: (29.61, 62.5)Temperatura (degC), Punto: (29.805, 62.5)Temperatura (degC), Punto: (0, 125)Temperatura (degC), Punto: (15, 125)Temperatura (degC), Punto: (28.051, 125)Temperatura (degC), Punto: (29.025, 125)Temperatura (degC), Punto: (29.61, 125)Temperatura (degC), Punto: (29.805, 125)Temperatura (degC), Punto: (0, 187.5)Temperatura (degC), Punto: (15, 187.5)Temperatura (degC), Punto: (28.051, 187.5)Temperatura (degC), Punto: (29.025, 187.5)Temperatura (degC), Punto: (29.61, 187.5)Temperatura (degC), Punto: (29.805, 187.5)Temperatura (degC), Punto: (0, 250)Temperatura (degC), Punto: (15, 250)Temperatura (degC), Punto: (28.051, 250)Temperatura (degC), Punto: (29.025, 250)Temperatura (degC), Punto: (29.61, 250)Temperatura (degC), Punto: (29.805, 250)Temperatura (degC), Punto: (0, 312.5)Temperatura (degC), Punto: (15, 312.5)Temperatura (degC), Punto: (28.051, 312.5)Temperatura (degC), Punto: (29.025, 312.5)Temperatura (degC), Punto: (29.61, 312.5)Temperatura (degC), Punto: (29.805, 312.5)Temperatura (degC), Punto: (0, 375)Temperatura (degC), Punto: (15, 375)Temperatura (degC), Punto: (28.051, 375)Temperatura (degC), Punto: (29.025, 375)Temperatura (degC), Punto: (29.61, 375)Temperatura (degC), Punto: (29.805, 375)Temperatura (degC), Punto: (0, 437.5)Temperatura (degC), Punto: (15, 437.5)Temperatura (degC), Punto: (28.051, 437.5)Temperatura (degC), Punto: (29.025, 437.5)Temperatura (degC), Punto: (29.61, 437.5)Temperatura (degC), Punto: (29.805, 437.5)Temperatura (degC), Punto: (0, 468.75)Temperatura (degC), Punto: (15, 468.75)Temperatura (degC), Punto: (28.051, 468.75)Temperatura (degC), Punto: (29.025, 468.75)Temperatura (degC), Punto: (29.61, 468.75)Temperatura (degC), Punto: (29.805, 468.75)Temperatura (degC), Punto: (0, 492.19)Temperatura (degC), Punto: (15, 492.19)Temperatura (degC), Punto: (28.051, 492.19)Temperatura (degC), Punto: (29.025, 492.19)Temperatura (degC), Punto: (29.61, 492.19)Temperatura (degC), Punto: (29.805, 492.19)
12.000                   3.0000                   2.0000                   1.1000                   10000                    1000.0                   0.0000                   20.000                   20.000                   20.000                   20.000                   20.015                   20.094                   20.000                   20.000                   20.000                   20.000                   20.015                   20.094                   20.000                   20.000                   20.000                   20.000                   20.015                   20.093                   20.000                   20.000                   20.000                   20.000                   20.014                   20.092                   20.000                   20.000                   20.000                   20.000                   20.009                   20.069                   20.000                   20.000                   20.000                   20.000                   20.001                   20.017                   20.000                   20.000                   20.000                   20.000                   20.000                   20.003                   20.000                   20.000                   20.000                   20.000                   20.000                   20.001                   20.000                   20.000                   20.000                   20.000                   20.000                   20.000                   20.000                   20.000                   20.000                   20.000                   20.000                   20.000
12.000                   3.0000                   2.0000                   1.1000                   10000                    1000.0                   5.0000                   21.682                   28.306                   71.115                   77.929                   82.088                   83.405                   21.686                   28.435                   72.206                   79.188                   83.366                   84.662                   21.931                   29.518                   75.602                   82.442                   86.519                   87.794                   21.844                   29.201                   74.376                   80.881                   84.608                   85.752                   21.293                   26.715                   62.421                   67.648                   70.476                   71.317                   20.439                   22.272                   33.505                   35.120                   36.113                   36.404                   20.109                   20.632                   24.182                   24.684                   24.971                   25.055                   20.023                   20.163                   21.268                   21.416                   21.502                   21.522                   20.008                   20.061                   20.706                   20.835                   20.920                   20.936                   20.010                   20.053                   20.420                   20.486                   20.533                   20.550
12.000                   3.0000                   2.0000                   1.1000                   10000                    1000.0                   10.000                   35.222                   54.093                   122.57                   130.71                   135.01                   136.16                   35.350                   54.424                   122.59                   130.46                   134.85                   136.03                   36.053                   55.163                   121.83                   129.82                   134.20                   135.38                   36.227                   56.114                   128.88                   137.60                   142.37                   143.76                   32.435                   48.305                   108.00                   115.25                   118.91                   119.91                   24.475                   29.982                   48.628                   50.671                   51.801                   52.093                   21.401                   23.201                   28.906                   29.400                   29.631                   29.687                   20.492                   21.193                   23.665                   23.913                   24.043                   24.072                   20.205                   20.526                   21.973                   22.192                   22.320                   22.338                   20.154                   20.374                   21.208                   21.306                   21.371                   21.394
12.000                   3.0000                   2.0000                   1.1000                   10000                    1000.0                   15.000                   59.514                   84.708                   154.69                   162.02                   166.41                   167.76                   59.664                   84.791                   153.62                   160.73                   165.03                   166.34                   60.419                   85.640                   156.79                   164.37                   168.96                   170.37                   61.744                   88.469                   162.56                   169.96                   174.33                   175.63                   52.522                   73.894                   132.22                   137.90                   141.22                   142.27                   32.430                   40.130                   59.002                   60.654                   61.618                   61.924                   24.297                   26.891                   32.590                   33.021                   33.265                   33.338                   21.642                   22.758                   25.153                   25.292                   25.360                   25.377                   20.693                   21.193                   22.417                   22.508                   22.555                   22.565                   20.502                   20.835                   21.545                   21.590                   21.615                   21.622
12.000                   3.0000                   2.0000                   1.1000                   10000                    1000.0                   20.000                   88.383                   115.75                   191.99                   200.59                   205.31                   206.67                   88.427                   115.50                   188.85                   196.79                   201.32                   202.66                   90.193                   118.84                   199.76                   208.67                   213.77                   215.29                   92.156                   121.44                   202.32                   210.90                   215.48                   216.82                   76.587                   100.31                   167.06                   174.31                   178.01                   179.17                   42.524                   51.151                   71.968                   73.888                   74.899                   75.165                   28.238                   31.287                   38.601                   39.205                   39.519                   39.596                   23.278                   24.683                   27.976                   28.249                   28.399                   28.433                   21.379                   21.970                   23.629                   23.839                   23.965                   23.983                   20.981                   21.366                   22.285                   22.382                   22.450                   22.474
12.000                   3.0000                   2.0000                   1.1000                   10000                    1000.0                   25.000                   118.62                   147.64                   229.26                   238.37                   243.29                   244.70                   118.71                   147.48                   226.98                   235.74                   240.83                   242.27                   122.28                   153.47                   240.36                   249.69                   255.07                   256.56                   124.16                   155.42                   242.88                   252.40                   257.64                   259.16                   102.42                   128.21                   201.52                   209.35                   213.35                   214.55                   53.797                   63.215                   85.810                   87.871                   88.920                   89.190                   33.005                   36.610                   45.155                   45.754                   46.044                   46.113                   25.402                   27.207                   31.467                   31.815                   32.011                   32.062                   22.233                   22.920                   24.789                   25.017                   25.156                   25.182                   21.577                   22.037                   23.150                   23.257                   23.329                   23.354
12.000                   3.0000                   2.0000                   1.1000                   10000                    1000.0                   30.000                   149.85                   180.55                   266.23                   275.58                   280.79                   282.27                   150.30                   181.05                   266.87                   276.28                   281.89                   283.44                   155.33                   188.10                   277.32                   286.63                   292.16                   293.63                   156.77                   189.61                   281.18                   291.09                   296.82                   298.45                   128.58                   155.50                   229.78                   237.31                   241.39                   242.61                   65.610                   75.395                   98.418                   100.49                   101.57                   101.87                   38.175                   42.092                   50.944                   51.526                   51.813                   51.885                   27.706                   29.713                   34.207                   34.555                   34.752                   34.807                   23.176                   23.880                   25.565                   25.730                   25.834                   25.860                   22.235                   22.727                   23.849                   23.941                   23.999                   24.019
12.000                   3.0000                   2.0000                   1.1000                   10000                    1000.0                   35.000                   181.77                   213.73                   301.94                   311.44                   317.08                   318.63                   182.71                   214.84                   303.55                   313.13                   318.95                   320.54                   188.54                   222.15                   313.23                   322.82                   328.64                   330.21                   189.09                   222.55                   313.88                   323.59                   329.42                   331.03                   153.79                   180.26                   250.09                   257.10                   261.18                   262.39                   76.897                   86.006                   106.70                   108.54                   109.59                   109.91                   42.742                   46.078                   52.837                   53.286                   53.525                   53.595                   29.567                   31.183                   34.277                   34.479                   34.591                   34.623                   24.061                   24.635                   25.818                   25.915                   25.974                   25.990                   22.847                   23.250                   24.046                   24.101                   24.135                   24.146
12.000                   3.0000                   2.0000                   1.1000                   10000                    1000.0                   40.000                   213.57                   246.70                   337.49                   347.18                   353.18                   354.81                   214.94                   248.31                   339.59                   349.35                   355.37                   357.00                   221.59                   256.07                   349.47                   359.40                   365.52                   367.17                   221.17                   255.26                   347.00                   356.66                   362.62                   364.22                   178.50                   204.41                   270.14                   276.70                   280.79                   281.95                   87.920                   96.350                   114.94                   116.57                   117.58                   117.91                   47.043                   49.800                   54.734                   55.070                   55.269                   55.336                   31.259                   32.488                   34.378                   34.469                   34.519                   34.537                   24.908                   25.357                   26.119                   26.163                   26.188                   26.198                   23.435                   23.754                   24.266                   24.292                   24.305                   24.309
12.000                   3.0000                   2.0000                   1.1000                   10000                    1000.0                   45.000                   245.12                   279.25                   372.72                   382.69                   388.96                   390.61                   246.86                   281.15                   374.38                   384.36                   390.58                   392.21                   254.31                   289.74                   386.33                   396.71                   403.17                   404.89                   252.77                   287.52                   380.94                   390.80                   397.00                   398.62                   202.25                   227.38                   289.69                   295.96                   300.01                   301.11                   98.436                   106.18                   123.07                   124.55                   125.52                   125.85                   50.826                   53.015                   56.639                   56.900                   57.070                   57.136                   32.627                   33.473                   34.538                   34.587                   34.622                   34.640                   25.683                   26.017                   26.511                   26.533                   26.545                   26.554                   23.981                   24.219                   24.531                   24.539                   24.541                   24.541
12.000                   3.0000                   2.0000                   1.1000                   10000                    1000.0                   50.000                   276.84                   312.59                   411.76                   422.50                   429.17                   430.89                   278.78                   314.65                   413.70                   424.44                   431.09                   432.80                   286.35                   323.25                   425.18                   436.26                   443.10                   444.87                   283.44                   319.46                   417.85                   428.40                   434.96                   436.65                   224.92                   250.51                   315.87                   322.60                   326.90                   328.06                   108.25                   115.86                   133.07                   134.64                   135.65                   136.00                   53.617                   55.578                   59.123                   59.408                   59.592                   59.659                   33.367                   34.055                   35.009                   35.067                   35.106                   35.124                   26.294                   26.584                   27.057                   27.086                   27.102                   27.111                   24.450                   24.655                   24.951                   24.964                   24.970                   24.972
12.000                   3.0000                   2.0000                   1.1000                   10000                    1000.0                   55.000                   308.58                   345.99                   451.15                   462.69                   469.78                   471.57                   310.69                   348.22                   453.41                   464.98                   472.07                   473.86                   318.34                   356.74                   464.21                   476.01                   483.23                   485.05                   314.02                   351.36                   455.02                   466.31                   473.24                   475.00                   247.49                   273.66                   342.65                   349.90                   354.46                   355.71                   118.01                   125.53                   143.24                   144.92                   145.98                   146.34                   56.319                   58.084                   61.658                   61.977                   62.177                   62.248                   34.053                   34.600                   35.508                   35.579                   35.624                   35.642                   26.890                   27.142                   27.617                   27.654                   27.676                   27.686                   24.913                   25.087                   25.384                   25.405                   25.416                   25.420
12.000                   3.0000                   2.0000                   1.1000                   10000                    1000.0                   60.000                   340.30                   379.38                   490.53                   502.87                   510.38                   512.24                   342.57                   381.76                   493.13                   505.52                   513.05                   514.92                   350.25                   390.17                   503.20                   515.72                   523.33                   525.20                   344.54                   383.22                   492.14                   504.15                   511.46                   513.28                   270.08                   296.85                   369.46                   377.24                   382.05                   383.38                   127.78                   135.23                   153.44                   155.24                   156.35                   156.71                   59.020                   60.600                   64.203                   64.553                   64.769                   64.842                   34.735                   35.151                   36.015                   36.098                   36.149                   36.167                   27.484                   27.699                   28.177                   28.222                   28.249                   28.259                   25.376                   25.523                   25.820                   25.847                   25.863                   25.869
12.000                   3.0000                   2.0000                   1.1000                   10000                    1000.0                   65.000                   371.63                   412.52                   529.83                   542.92                   550.85                   552.77                   373.98                   415.04                   532.83                   546.00                   553.97                   555.90                   381.27                   422.84                   541.63                   554.90                   562.92                   564.85                   374.20                   414.39                   528.53                   541.17                   548.82                   550.68                   292.82                   320.64                   396.78                   404.96                   410.01                   411.37                   137.85                   145.45                   164.15                   165.99                   167.13                   167.51                   61.701                   63.253                   66.867                   67.218                   67.435                   67.507                   35.379                   35.771                   36.629                   36.713                   36.764                   36.782                   28.042                   28.250                   28.727                   28.773                   28.801                   28.810                   25.851                   25.991                   26.286                   26.312                   26.329                   26.334
12.000                   3.0000                   2.0000                   1.1000                   10000                    1000.0                   70.000                   402.97                   445.66                   569.13                   582.97                   591.32                   593.30                   405.39                   448.31                   572.53                   586.49                   594.90                   596.89                   412.29                   455.52                   580.07                   594.08                   602.51                   604.49                   403.87                   445.55                   564.93                   578.19                   586.17                   588.09                   315.56                   344.44                   424.10                   432.69                   437.96                   439.37                   147.92                   155.66                   174.85                   176.75                   177.92                   178.30                   64.381                   65.906                   69.532                   69.884                   70.101                   70.173                   36.024                   36.391                   37.244                   37.328                   37.380                   37.397                   28.601                   28.801                   29.277                   29.324                   29.352                   29.362                   26.325                   26.460                   26.751                   26.778                   26.794                   26.799
12.000                   3.0000                   2.0000                   1.1000                   10000                    1000.0                   75.000                   434.01                   478.44                   607.82                   622.44                   631.23                   633.28                   436.48                   481.17                   611.48                   626.24                   635.11                   637.16                   442.97                   487.77                   617.81                   632.57                   641.44                   643.49                   433.28                   476.45                   600.99                   614.91                   623.27                   625.24                   338.28                   368.22                   451.38                   460.38                   465.87                   467.31                   158.07                   165.96                   185.65                   187.60                   188.80                   189.19                   67.105                   68.611                   72.253                   72.607                   72.825                   72.897                   36.683                   37.030                   37.880                   37.964                   38.016                   38.033                   29.161                   29.355                   29.831                   29.878                   29.907                   29.916                   26.804                   26.934                   27.223                   27.249                   27.266                   27.271