% Model:              batchmodel_COIL_N_12_COIL_kr_2.25_COIL_kh_1_COIL_kturn_1.4_FUNZ_freq_10000_FUNZ_I_eff_1000.mph
% Version:            COMSOL 5.6.0.280
% Date:               Feb 1 2022, 18:17
% Table:              Tabella 1 - GRIGLIA_T
% COIL_N                 COIL_kr                  COIL_kh                  COIL_kturn               FUNZ_freq                FUNZ_I_eff               Time (s)                 Temperatura (degC), Punto: (0, 0)Temperatura (degC), Punto: (15, 0)Temperatura (degC), Punto: (28.051, 0)Temperatura (degC), Punto: (29.025, 0)Temperatura (degC), Punto: (29.61, 0)Temperatura (degC), Punto: (29.805, 0)Temperatura (degC), Punto: (0, 62.5)Temperatura (degC), Punto: (15, 62.5)Temperatura (degC), Punto: (28.051, 62.5)Temperatura (degC), Punto: (29.025, 62.5)Temperatura (degC), Punto: (29.61, 62.5)Temperatura (degC), Punto: (29.805, 62.5)Temperatura (degC), Punto: (0, 125)Temperatura (degC), Punto: (15, 125)Temperatura (degC), Punto: (28.051, 125)Temperatura (degC), Punto: (29.025, 125)Temperatura (degC), Punto: (29.61, 125)Temperatura (degC), Punto: (29.805, 125)Temperatura (degC), Punto: (0, 187.5)Temperatura (degC), Punto: (15, 187.5)Temperatura (degC), Punto: (28.051, 187.5)Temperatura (degC), Punto: (29.025, 187.5)Temperatura (degC), Punto: (29.61, 187.5)Temperatura (degC), Punto: (29.805, 187.5)Temperatura (degC), Punto: (0, 250)Temperatura (degC), Punto: (15, 250)Temperatura (degC), Punto: (28.051, 250)Temperatura (degC), Punto: (29.025, 250)Temperatura (degC), Punto: (29.61, 250)Temperatura (degC), Punto: (29.805, 250)Temperatura (degC), Punto: (0, 312.5)Temperatura (degC), Punto: (15, 312.5)Temperatura (degC), Punto: (28.051, 312.5)Temperatura (degC), Punto: (29.025, 312.5)Temperatura (degC), Punto: (29.61, 312.5)Temperatura (degC), Punto: (29.805, 312.5)Temperatura (degC), Punto: (0, 375)Temperatura (degC), Punto: (15, 375)Temperatura (degC), Punto: (28.051, 375)Temperatura (degC), Punto: (29.025, 375)Temperatura (degC), Punto: (29.61, 375)Temperatura (degC), Punto: (29.805, 375)Temperatura (degC), Punto: (0, 437.5)Temperatura (degC), Punto: (15, 437.5)Temperatura (degC), Punto: (28.051, 437.5)Temperatura (degC), Punto: (29.025, 437.5)Temperatura (degC), Punto: (29.61, 437.5)Temperatura (degC), Punto: (29.805, 437.5)Temperatura (degC), Punto: (0, 468.75)Temperatura (degC), Punto: (15, 468.75)Temperatura (degC), Punto: (28.051, 468.75)Temperatura (degC), Punto: (29.025, 468.75)Temperatura (degC), Punto: (29.61, 468.75)Temperatura (degC), Punto: (29.805, 468.75)Temperatura (degC), Punto: (0, 492.19)Temperatura (degC), Punto: (15, 492.19)Temperatura (degC), Punto: (28.051, 492.19)Temperatura (degC), Punto: (29.025, 492.19)Temperatura (degC), Punto: (29.61, 492.19)Temperatura (degC), Punto: (29.805, 492.19)
12.000                   2.2500                   1.0000                   1.4000                   10000                    1000.0                   0.0000                   20.000                   20.000                   20.000                   20.000                   20.048                   20.187                   20.000                   20.000                   20.000                   20.000                   20.048                   20.187                   20.000                   20.000                   20.000                   20.000                   20.046                   20.182                   20.000                   20.000                   20.000                   20.000                   20.008                   20.061                   20.000                   20.000                   20.000                   20.000                   20.000                   20.005                   20.000                   20.000                   20.000                   20.000                   20.000                   20.001                   20.000                   20.000                   20.000                   20.000                   20.000                   20.000                   20.000                   20.000                   20.000                   20.000                   20.000                   20.000                   20.000                   20.000                   20.000                   20.000                   20.000                   20.000                   20.000                   20.000                   20.000                   20.000                   20.000                   20.000
12.000                   2.2500                   1.0000                   1.4000                   10000                    1000.0                   5.0000                   25.138                   42.069                   138.42                   151.90                   160.38                   162.73                   25.103                   42.070                   138.54                   152.05                   160.58                   162.94                   24.996                   41.437                   133.66                   146.71                   154.99                   157.31                   21.354                   26.691                   62.333                   66.980                   69.764                   70.661                   19.942                   20.627                   29.774                   30.687                   31.080                   31.212                   20.012                   20.299                   23.252                   23.522                   23.652                   23.682                   20.063                   20.282                   21.255                   21.320                   21.352                   21.360                   20.007                   20.028                   20.139                   20.153                   20.162                   20.165                   20.005                   20.021                   20.107                   20.118                   20.125                   20.127                   20.005                   20.019                   20.092                   20.101                   20.107                   20.109
12.000                   2.2500                   1.0000                   1.4000                   10000                    1000.0                   10.000                   56.423                   94.669                   227.27                   243.22                   253.10                   255.70                   56.500                   94.872                   228.14                   244.22                   254.18                   256.80                   55.370                   92.774                   222.84                   238.39                   248.00                   250.56                   34.134                   49.873                   102.07                   107.58                   110.81                   111.79                   22.987                   27.335                   42.350                   43.544                   43.989                   44.105                   21.247                   22.842                   27.924                   28.386                   28.615                   28.655                   20.556                   21.118                   22.500                   22.572                   22.605                   22.613                   20.043                   20.086                   20.219                   20.233                   20.242                   20.245                   20.033                   20.067                   20.171                   20.183                   20.190                   20.193                   20.030                   20.059                   20.150                   20.160                   20.166                   20.168
12.000                   2.2500                   1.0000                   1.4000                   10000                    1000.0                   15.000                   104.29                   155.26                   313.61                   332.36                   343.82                   346.71                   104.58                   155.63                   313.84                   332.49                   343.73                   346.56                   101.57                   151.10                   303.70                   321.48                   332.32                   335.07                   55.296                   76.852                   138.82                   144.98                   148.04                   148.83                   28.788                   35.550                   61.568                   64.615                   65.495                   65.762                   23.448                   25.775                   33.842                   35.000                   35.552                   35.614                   21.321                   22.084                   24.238                   24.414                   24.485                   24.505                   20.100                   20.156                   20.316                   20.333                   20.344                   20.348                   20.076                   20.119                   20.238                   20.251                   20.259                   20.261                   20.068                   20.106                   20.207                   20.217                   20.223                   20.226
12.000                   2.2500                   1.0000                   1.4000                   10000                    1000.0                   20.000                   160.90                   219.92                   401.52                   423.18                   436.25                   439.38                   161.42                   220.53                   402.26                   424.02                   437.05                   440.16                   156.02                   213.45                   389.90                   410.81                   423.49                   426.54                   82.775                   109.02                   185.14                   192.55                   195.98                   196.85                   38.123                   48.552                   89.841                   94.751                   95.931                   96.243                   27.105                   30.901                   45.284                   47.336                   48.379                   48.516                   22.602                   23.880                   27.913                   28.246                   28.340                   28.359                   20.176                   20.241                   20.419                   20.437                   20.448                   20.452                   20.129                   20.177                   20.305                   20.318                   20.326                   20.329                   20.115                   20.157                   20.263                   20.274                   20.280                   20.282
12.000                   2.2500                   1.0000                   1.4000                   10000                    1000.0                   25.000                   220.30                   285.65                   488.68                   513.13                   527.61                   530.93                   221.10                   286.61                   489.92                   514.60                   529.29                   532.65                   213.35                   277.30                   475.58                   499.35                   513.67                   516.93                   114.12                   144.45                   230.34                   238.58                   242.55                   243.59                   50.288                   63.752                   110.57                   115.90                   117.05                   117.32                   32.175                   37.356                   54.331                   56.410                   57.500                   57.654                   24.463                   26.304                   31.550                   31.922                   32.022                   32.039                   20.267                   20.339                   20.524                   20.542                   20.554                   20.557                   20.187                   20.239                   20.370                   20.384                   20.392                   20.394                   20.166                   20.210                   20.319                   20.330                   20.336                   20.339
12.000                   2.2500                   1.0000                   1.4000                   10000                    1000.0                   30.000                   279.79                   350.07                   571.44                   598.81                   614.74                   618.23                   281.05                   351.78                   574.69                   602.52                   618.93                   622.52                   271.03                   340.24                   556.93                   583.34                   599.04                   602.44                   148.15                   181.44                   273.29                   282.07                   286.57                   287.76                   64.269                   79.192                   125.53                   130.59                   131.65                   131.89                   38.273                   44.162                   60.839                   62.605                   63.511                   63.661                   26.866                   29.102                   34.917                   35.306                   35.417                   35.433                   20.386                   20.461                   20.646                   20.664                   20.675                   20.678                   20.251                   20.304                   20.436                   20.449                   20.457                   20.460                   20.221                   20.266                   20.375                   20.386                   20.392                   20.395
12.000                   2.2500                   1.0000                   1.4000                   10000                    1000.0                   35.000                   338.55                   413.06                   650.74                   681.09                   698.55                   702.20                   340.39                   415.77                   657.24                   688.51                   706.81                   710.64                   328.14                   401.91                   635.12                   664.20                   681.30                   684.84                   183.12                   218.55                   314.16                   323.31                   328.28                   329.58                   78.779                   94.205                   138.26                   142.89                   143.88                   144.11                   44.709                   50.822                   65.953                   67.298                   67.945                   68.074                   29.511                   32.006                   38.074                   38.470                   38.585                   38.598                   20.524                   20.599                   20.782                   20.799                   20.810                   20.813                   20.318                   20.371                   20.503                   20.516                   20.523                   20.526                   20.277                   20.323                   20.432                   20.443                   20.449                   20.451
12.000                   2.2500                   1.0000                   1.4000                   10000                    1000.0                   40.000                   394.50                   472.13                   723.56                   757.63                   776.76                   780.60                   397.07                   476.07                   735.63                   771.30                   791.57                   795.62                   382.69                   459.77                   705.42                   737.80                   756.45                   760.15                   217.96                   254.84                   353.09                   362.63                   368.03                   369.41                   93.680                   109.22                   151.42                   155.78                   156.72                   156.94                   51.394                   57.482                   71.271                   72.366                   72.847                   72.964                   32.380                   35.053                   41.343                   41.759                   41.887                   41.901                   20.690                   20.764                   20.941                   20.958                   20.968                   20.972                   20.389                   20.442                   20.572                   20.584                   20.592                   20.595                   20.335                   20.381                   20.489                   20.500                   20.506                   20.508
12.000                   2.2500                   1.0000                   1.4000                   10000                    1000.0                   45.000                   448.35                   528.24                   791.49                   829.84                   850.75                   854.77                   451.72                   533.58                   810.87                   851.67                   873.97                   878.21                   435.28                   514.73                   769.77                   805.91                   826.22                   830.09                   252.71                   290.52                   390.57                   400.50                   406.31                   407.75                   108.88                   124.23                   164.92                   169.10                   170.02                   170.23                   58.269                   64.143                   76.743                   77.717                   78.103                   78.213                   35.418                   38.207                   44.697                   45.141                   45.290                   45.306                   20.876                   20.949                   21.118                   21.134                   21.144                   21.147                   20.464                   20.516                   20.643                   20.655                   20.663                   20.665                   20.395                   20.440                   20.547                   20.557                   20.563                   20.566
12.000                   2.2500                   1.0000                   1.4000                   10000                    1000.0                   50.000                   497.31                   577.91                   860.51                   900.17                   920.92                   924.77                   501.25                   583.80                   878.86                   919.98                   941.39                   945.30                   483.04                   563.16                   834.10                   872.05                   892.54                   896.36                   285.33                   323.05                   421.84                   431.73                   437.63                   439.10                   121.31                   134.58                   166.79                   169.86                   170.65                   170.85                   63.685                   68.579                   78.183                   78.863                   79.127                   79.208                   37.735                   40.114                   45.196                   45.524                   45.638                   45.653                   21.111                   21.183                   21.350                   21.366                   21.376                   21.379                   20.549                   20.601                   20.727                   20.739                   20.747                   20.750                   20.459                   20.503                   20.610                   20.621                   20.627                   20.629
12.000                   2.2500                   1.0000                   1.4000                   10000                    1000.0                   55.000                   543.51                   623.92                   930.17                   969.44                   988.93                   992.40                   547.87                   629.90                   942.75                   981.46                   1000.3                   1003.6                   528.04                   607.88                   898.42                   937.08                   956.91                   960.54                   316.73                   353.79                   449.58                   459.20                   464.99                   466.48                   132.18                   142.27                   162.06                   163.50                   164.11                   164.29                   68.275                   71.754                   77.336                   77.624                   77.751                   77.789                   39.644                   41.313                   44.078                   44.205                   44.254                   44.264                   21.374                   21.444                   21.614                   21.630                   21.640                   21.644                   20.640                   20.692                   20.819                   20.832                   20.839                   20.842                   20.525                   20.569                   20.677                   20.687                   20.693                   20.696
12.000                   2.2500                   1.0000                   1.4000                   10000                    1000.0                   60.000                   584.98                   664.21                   988.63                   1023.2                   1037.8                   1040.0                   589.25                   668.76                   968.39                   1000.3                   1015.5                   1018.1                   568.63                   646.81                   935.30                   969.53                   986.68                   989.78                   345.83                   382.22                   476.14                   485.63                   491.37                   492.85                   141.15                   148.97                   163.04                   163.96                   164.50                   164.68                   71.659                   74.105                   77.644                   77.801                   77.884                   77.910                   40.931                   42.066                   43.654                   43.711                   43.738                   43.746                   21.668                   21.737                   21.906                   21.922                   21.932                   21.936                   20.742                   20.793                   20.920                   20.933                   20.940                   20.943                   20.595                   20.640                   20.747                   20.757                   20.763                   20.766
12.000                   2.2500                   1.0000                   1.4000                   10000                    1000.0                   65.000                   624.02                   701.65                   1040.2                   1068.2                   1076.6                   1077.3                   627.97                   704.08                   977.78                   1001.4                   1012.5                   1014.5                   606.97                   682.86                   960.24                   988.03                   1001.7                   1004.2                   373.81                   409.53                   502.07                   511.49                   517.19                   518.64                   149.28                   155.27                   166.51                   167.38                   167.90                   168.07                   74.486                   76.089                   78.455                   78.592                   78.670                   78.695                   41.932                   42.621                   43.538                   43.579                   43.602                   43.609                   21.978                   22.046                   22.212                   22.228                   22.238                   22.241                   20.849                   20.900                   21.026                   21.038                   21.046                   21.048                   20.668                   20.712                   20.819                   20.829                   20.835                   20.837
12.000                   2.2500                   1.0000                   1.4000                   10000                    1000.0                   70.000                   656.89                   732.61                   1061.0                   1082.4                   1087.8                   1088.0                   660.09                   732.09                   982.29                   1000.8                   1009.6                   1011.1                   639.76                   712.49                   977.79                   1000.8                   1011.7                   1013.6                   399.43                   434.55                   526.13                   535.51                   541.18                   542.62                   156.48                   161.52                   171.65                   172.50                   173.01                   173.18                   76.577                   77.734                   79.595                   79.722                   79.797                   79.822                   42.568                   43.024                   43.670                   43.706                   43.727                   43.733                   22.313                   22.381                   22.544                   22.560                   22.569                   22.573                   20.969                   21.019                   21.144                   21.157                   21.164                   21.167                   20.747                   20.791                   20.897                   20.907                   20.913                   20.915
12.000                   2.2500                   1.0000                   1.4000                   10000                    1000.0                   75.000                   685.28                   762.62                   1070.8                   1087.0                   1090.5                   1090.4                   687.64                   758.92                   989.52                   1004.4                   1011.3                   1012.4                   668.86                   739.95                   997.10                   1016.4                   1024.9                   1026.2                   423.64                   458.20                   548.83                   558.18                   563.82                   565.24                   163.46                   167.89                   177.34                   178.18                   178.69                   178.86                   78.436                   79.296                   80.838                   80.959                   81.031                   81.055                   43.097                   43.400                   43.878                   43.911                   43.931                   43.937                   22.661                   22.727                   22.887                   22.903                   22.912                   22.915                   21.098                   21.148                   21.272                   21.284                   21.291                   21.294                   20.831                   20.875                   20.980                   20.990                   20.996                   20.998