% Model:              batchmodel_COIL_N_12_COIL_kr_1.5_COIL_kh_2_COIL_kturn_1.1_FUNZ_freq_10000_FUNZ_I_eff_4000.mph
% Version:            COMSOL 5.6.0.280
% Date:               Feb 1 2022, 14:15
% Table:              Tabella 1 - GRIGLIA_T
% COIL_N                 COIL_kr                  COIL_kh                  COIL_kturn               FUNZ_freq                FUNZ_I_eff               Time (s)                 Temperatura (degC), Punto: (0, 0)Temperatura (degC), Punto: (15, 0)Temperatura (degC), Punto: (28.051, 0)Temperatura (degC), Punto: (29.025, 0)Temperatura (degC), Punto: (29.61, 0)Temperatura (degC), Punto: (29.805, 0)Temperatura (degC), Punto: (0, 62.5)Temperatura (degC), Punto: (15, 62.5)Temperatura (degC), Punto: (28.051, 62.5)Temperatura (degC), Punto: (29.025, 62.5)Temperatura (degC), Punto: (29.61, 62.5)Temperatura (degC), Punto: (29.805, 62.5)Temperatura (degC), Punto: (0, 125)Temperatura (degC), Punto: (15, 125)Temperatura (degC), Punto: (28.051, 125)Temperatura (degC), Punto: (29.025, 125)Temperatura (degC), Punto: (29.61, 125)Temperatura (degC), Punto: (29.805, 125)Temperatura (degC), Punto: (0, 187.5)Temperatura (degC), Punto: (15, 187.5)Temperatura (degC), Punto: (28.051, 187.5)Temperatura (degC), Punto: (29.025, 187.5)Temperatura (degC), Punto: (29.61, 187.5)Temperatura (degC), Punto: (29.805, 187.5)Temperatura (degC), Punto: (0, 250)Temperatura (degC), Punto: (15, 250)Temperatura (degC), Punto: (28.051, 250)Temperatura (degC), Punto: (29.025, 250)Temperatura (degC), Punto: (29.61, 250)Temperatura (degC), Punto: (29.805, 250)Temperatura (degC), Punto: (0, 312.5)Temperatura (degC), Punto: (15, 312.5)Temperatura (degC), Punto: (28.051, 312.5)Temperatura (degC), Punto: (29.025, 312.5)Temperatura (degC), Punto: (29.61, 312.5)Temperatura (degC), Punto: (29.805, 312.5)Temperatura (degC), Punto: (0, 375)Temperatura (degC), Punto: (15, 375)Temperatura (degC), Punto: (28.051, 375)Temperatura (degC), Punto: (29.025, 375)Temperatura (degC), Punto: (29.61, 375)Temperatura (degC), Punto: (29.805, 375)Temperatura (degC), Punto: (0, 437.5)Temperatura (degC), Punto: (15, 437.5)Temperatura (degC), Punto: (28.051, 437.5)Temperatura (degC), Punto: (29.025, 437.5)Temperatura (degC), Punto: (29.61, 437.5)Temperatura (degC), Punto: (29.805, 437.5)Temperatura (degC), Punto: (0, 468.75)Temperatura (degC), Punto: (15, 468.75)Temperatura (degC), Punto: (28.051, 468.75)Temperatura (degC), Punto: (29.025, 468.75)Temperatura (degC), Punto: (29.61, 468.75)Temperatura (degC), Punto: (29.805, 468.75)Temperatura (degC), Punto: (0, 492.19)Temperatura (degC), Punto: (15, 492.19)Temperatura (degC), Punto: (28.051, 492.19)Temperatura (degC), Punto: (29.025, 492.19)Temperatura (degC), Punto: (29.61, 492.19)Temperatura (degC), Punto: (29.805, 492.19)
12.000                   1.5000                   2.0000                   1.1000                   10000                    4000.0                   0.0000                   20.000                   20.000                   20.000                   20.003                   20.430                   20.841                   20.000                   20.000                   20.000                   20.003                   20.437                   20.851                   20.000                   20.000                   20.000                   20.003                   20.433                   20.845                   20.000                   20.000                   20.000                   20.003                   20.435                   20.848                   20.000                   20.000                   20.000                   20.003                   20.407                   20.807                   20.000                   20.000                   20.000                   20.000                   20.003                   20.031                   20.000                   20.000                   20.000                   20.000                   20.000                   20.002                   20.000                   20.000                   20.000                   20.000                   20.000                   20.001                   20.000                   20.000                   20.000                   20.000                   20.000                   20.000                   20.000                   20.000                   20.000                   20.000                   20.000                   20.000
12.000                   1.5000                   2.0000                   1.1000                   10000                    4000.0                   5.0000                   42.349                   137.16                   813.74                   959.07                   1019.7                   1029.6                   42.098                   137.13                   823.92                   972.16                   1032.6                   1042.3                   42.096                   137.19                   845.73                   1001.4                   1059.7                   1068.4                   42.114                   137.21                   821.94                   968.22                   1028.2                   1037.8                   39.508                   126.16                   732.84                   864.93                   929.34                   940.62                   21.092                   26.009                   53.787                   57.193                   59.279                   59.948                   20.152                   20.779                   23.903                   24.249                   24.457                   24.526                   20.037                   20.186                   20.881                   20.956                   21.001                   21.016                   20.012                   20.071                   20.399                   20.439                   20.463                   20.471                   20.010                   20.048                   20.238                   20.261                   20.275                   20.279
12.000                   1.5000                   2.0000                   1.1000                   10000                    4000.0                   10.000                   171.99                   334.98                   913.02                   968.19                   991.38                   995.38                   172.04                   339.21                   1073.5                   1128.6                   1141.5                   1142.5                   172.25                   339.97                   1062.2                   1113.4                   1126.3                   1127.4                   172.24                   339.74                   1081.0                   1134.1                   1146.4                   1147.3                   154.72                   303.28                   894.07                   975.89                   1010.8                   1016.6                   31.932                   43.962                   74.687                   77.514                   79.226                   79.778                   21.417                   22.724                   25.713                   25.970                   26.125                   26.176                   20.324                   20.615                   21.276                   21.334                   21.368                   21.380                   20.112                   20.229                   20.543                   20.574                   20.593                   20.599                   20.077                   20.154                   20.351                   20.370                   20.381                   20.385
12.000                   1.5000                   2.0000                   1.1000                   10000                    4000.0                   15.000                   316.08                   484.16                   1104.2                   1133.7                   1140.3                   1140.5                   317.19                   491.29                   1141.8                   1164.9                   1169.5                   1169.3                   317.04                   490.04                   1135.2                   1159.3                   1164.2                   1164.1                   317.54                   491.97                   1142.1                   1165.0                   1169.5                   1169.4                   283.43                   438.70                   1098.3                   1142.6                   1153.4                   1154.3                   51.778                   65.711                   97.311                   100.14                   101.86                   102.41                   23.216                   24.490                   27.255                   27.500                   27.649                   27.699                   20.701                   20.975                   21.577                   21.631                   21.664                   21.675                   20.264                   20.388                   20.693                   20.722                   20.740                   20.746                   20.179                   20.263                   20.459                   20.477                   20.488                   20.491
12.000                   1.5000                   2.0000                   1.1000                   10000                    4000.0                   20.000                   432.97                   594.89                   1160.2                   1176.1                   1178.7                   1178.3                   434.60                   600.96                   1172.1                   1186.7                   1188.8                   1188.4                   434.10                   599.31                   1168.5                   1183.4                   1185.6                   1185.2                   434.99                   601.53                   1171.7                   1186.2                   1188.3                   1187.8                   390.51                   544.82                   1173.6                   1197.0                   1201.6                   1201.4                   75.280                   89.693                   122.06                   124.99                   126.77                   127.34                   25.030                   26.229                   28.915                   29.161                   29.311                   29.361                   21.047                   21.299                   21.874                   21.928                   21.961                   21.972                   20.431                   20.555                   20.856                   20.885                   20.903                   20.909                   20.294                   20.379                   20.573                   20.591                   20.602                   20.606
12.000                   1.5000                   2.0000                   1.1000                   10000                    4000.0                   25.000                   527.67                   681.82                   1192.4                   1203.2                   1204.3                   1203.6                   529.39                   686.70                   1198.6                   1209.0                   1210.0                   1209.3                   528.75                   684.98                   1195.8                   1206.3                   1207.4                   1206.7                   529.75                   687.09                   1198.0                   1208.4                   1209.4                   1208.7                   478.83                   630.22                   1200.0                   1214.7                   1216.9                   1216.4                   100.01                   114.59                   147.79                   150.83                   152.68                   153.27                   26.926                   28.090                   30.769                   31.019                   31.171                   31.223                   21.378                   21.617                   22.181                   22.235                   22.269                   22.280                   20.605                   20.729                   21.029                   21.059                   21.077                   21.083                   20.416                   20.501                   20.695                   20.713                   20.724                   20.728
12.000                   1.5000                   2.0000                   1.1000                   10000                    4000.0                   30.000                   601.91                   757.86                   1224.6                   1233.1                   1233.5                   1232.7                   603.43                   762.42                   1229.3                   1237.7                   1238.1                   1237.3                   602.79                   760.55                   1226.7                   1235.2                   1235.6                   1234.8                   603.72                   762.64                   1228.6                   1237.0                   1237.4                   1236.6                   550.05                   699.52                   1218.0                   1229.1                   1230.2                   1229.5                   124.83                   139.57                   173.51                   176.66                   178.57                   179.18                   29.079                   30.241                   32.953                   33.208                   33.365                   33.417                   21.712                   21.947                   22.510                   22.564                   22.598                   22.609                   20.788                   20.911                   21.213                   21.243                   21.261                   21.267                   20.548                   20.633                   20.828                   20.846                   20.857                   20.860
12.000                   1.5000                   2.0000                   1.1000                   10000                    4000.0                   35.000                   664.09                   836.27                   1259.7                   1266.9                   1266.8                   1265.8                   665.29                   840.31                   1264.0                   1271.2                   1271.1                   1270.2                   664.71                   838.49                   1261.4                   1268.6                   1268.5                   1267.6                   665.51                   840.64                   1263.2                   1270.4                   1270.3                   1269.4                   611.53                   761.94                   1235.7                   1244.5                   1245.0                   1244.2                   149.39                   164.27                   198.87                   202.10                   204.07                   204.69                   31.452                   32.626                   35.386                   35.646                   35.806                   35.860                   22.057                   22.289                   22.854                   22.909                   22.943                   22.954                   20.976                   21.100                   21.404                   21.433                   21.452                   21.458                   20.686                   20.771                   20.967                   20.985                   20.996                   21.000
12.000                   1.5000                   2.0000                   1.1000                   10000                    4000.0                   40.000                   709.42                   921.21                   1302.9                   1309.2                   1308.6                   1307.6                   710.04                   924.73                   1307.0                   1313.3                   1312.8                   1311.8                   709.53                   923.02                   1304.5                   1310.8                   1310.3                   1309.2                   710.20                   924.87                   1306.2                   1312.5                   1311.9                   1310.9                   660.61                   829.06                   1258.5                   1266.0                   1266.1                   1265.2                   173.06                   188.00                   223.12                   226.42                   228.44                   229.07                   34.223                   35.416                   38.229                   38.495                   38.658                   38.713                   22.427                   22.660                   23.229                   23.284                   23.318                   23.330                   21.175                   21.299                   21.605                   21.634                   21.653                   21.659                   20.834                   20.919                   21.116                   21.134                   21.145                   21.149
12.000                   1.5000                   2.0000                   1.1000                   10000                    4000.0                   45.000                   770.33                   1004.0                   1344.5                   1349.6                   1348.5                   1347.4                   771.39                   1007.0                   1348.0                   1353.1                   1352.1                   1350.9                   770.73                   1005.4                   1345.8                   1350.9                   1349.9                   1348.7                   771.50                   1006.9                   1347.2                   1352.3                   1351.3                   1350.1                   703.85                   896.31                   1283.8                   1290.3                   1289.9                   1288.9                   196.04                   211.04                   246.55                   249.91                   251.97                   252.61                   37.236                   38.449                   41.311                   41.581                   41.747                   41.803                   22.817                   23.051                   23.623                   23.678                   23.713                   23.724                   21.381                   21.505                   21.812                   21.842                   21.860                   21.866                   20.988                   21.074                   21.271                   21.289                   21.300                   21.304
12.000                   1.5000                   2.0000                   1.1000                   10000                    4000.0                   50.000                   849.18                   1083.7                   1383.1                   1386.8                   1385.2                   1383.8                   851.64                   1086.0                   1385.5                   1389.2                   1387.6                   1386.2                   850.62                   1084.8                   1384.0                   1387.7                   1386.0                   1384.7                   851.70                   1085.9                   1384.9                   1388.6                   1387.0                   1385.6                   742.85                   963.13                   1311.4                   1317.1                   1316.3                   1315.2                   218.32                   233.34                   269.14                   272.54                   274.63                   275.27                   40.491                   41.723                   44.629                   44.904                   45.072                   45.129                   23.227                   23.462                   24.037                   24.092                   24.127                   24.138                   21.593                   21.718                   22.026                   22.056                   22.074                   22.080                   21.148                   21.234                   21.431                   21.449                   21.460                   21.464
12.000                   1.5000                   2.0000                   1.1000                   10000                    4000.0                   55.000                   948.18                   1151.3                   1405.1                   1407.5                   1405.4                   1404.0                   950.40                   1153.1                   1407.0                   1409.5                   1407.4                   1406.0                   949.48                   1152.1                   1405.8                   1408.2                   1406.1                   1404.7                   950.33                   1152.9                   1406.5                   1408.9                   1406.9                   1405.5                   802.73                   1024.3                   1339.1                   1343.9                   1342.8                   1341.6                   239.37                   254.37                   290.26                   293.69                   295.79                   296.43                   44.147                   45.396                   48.341                   48.619                   48.789                   48.846                   23.678                   23.914                   24.491                   24.547                   24.581                   24.593                   21.819                   21.944                   22.252                   22.282                   22.301                   22.307                   21.318                   21.404                   21.602                   21.620                   21.631                   21.634
12.000                   1.5000                   2.0000                   1.1000                   10000                    4000.0                   60.000                   1038.6                   1210.9                   1424.7                   1426.3                   1423.9                   1422.4                   1040.5                   1212.3                   1426.6                   1428.3                   1426.0                   1424.5                   1039.7                   1211.5                   1425.3                   1427.0                   1424.6                   1423.1                   1040.3                   1212.1                   1426.0                   1427.7                   1425.4                   1423.9                   871.78                   1080.7                   1363.8                   1367.7                   1366.2                   1364.9                   259.67                   274.61                   310.54                   313.98                   316.09                   316.74                   48.029                   49.294                   52.275                   52.557                   52.729                   52.787                   24.159                   24.396                   24.974                   25.031                   25.065                   25.077                   22.054                   22.180                   22.488                   22.519                   22.537                   22.543                   21.495                   21.582                   21.779                   21.797                   21.808                   21.812
12.000                   1.5000                   2.0000                   1.1000                   10000                    4000.0                   65.000                   1120.6                   1263.5                   1444.7                   1445.9                   1443.4                   1441.8                   1122.1                   1264.7                   1447.0                   1448.4                   1445.9                   1444.3                   1121.5                   1264.0                   1445.4                   1446.7                   1444.2                   1442.7                   1121.8                   1264.3                   1446.2                   1447.6                   1445.1                   1443.5                   946.02                   1132.7                   1385.7                   1388.6                   1386.7                   1385.4                   279.27                   294.14                   330.04                   333.49                   335.61                   336.25                   52.115                   53.395                   56.411                   56.696                   56.870                   56.929                   24.668                   24.906                   25.486                   25.543                   25.577                   25.589                   22.298                   22.425                   22.734                   22.764                   22.783                   22.789                   21.679                   21.765                   21.962                   21.980                   21.991                   21.995
12.000                   1.5000                   2.0000                   1.1000                   10000                    4000.0                   70.000                   1187.8                   1306.1                   1476.3                   1477.9                   1475.3                   1473.7                   1189.0                   1307.1                   1479.8                   1481.5                   1478.9                   1477.3                   1188.5                   1306.5                   1477.4                   1479.1                   1476.4                   1474.8                   1188.6                   1306.7                   1478.5                   1480.2                   1477.5                   1475.9                   1014.4                   1177.5                   1402.3                   1404.4                   1402.3                   1400.8                   297.79                   312.55                   348.34                   351.79                   353.91                   354.54                   56.497                   57.791                   60.839                   61.127                   61.303                   61.362                   25.226                   25.464                   26.047                   26.104                   26.138                   26.150                   22.559                   22.686                   22.995                   23.026                   23.044                   23.050                   21.873                   21.960                   22.157                   22.175                   22.186                   22.189
12.000                   1.5000                   2.0000                   1.1000                   10000                    4000.0                   75.000                   1244.9                   1342.5                   1511.3                   1512.5                   1509.5                   1507.8                   1245.7                   1343.4                   1515.0                   1516.3                   1513.4                   1511.6                   1245.3                   1342.9                   1512.4                   1513.7                   1510.7                   1509.0                   1245.2                   1343.0                   1513.5                   1514.8                   1511.8                   1510.1                   1074.9                   1217.5                   1417.3                   1418.9                   1416.5                   1415.0                   315.53                   330.18                   365.79                   369.24                   371.35                   371.98                   61.073                   62.378                   65.454                   65.744                   65.922                   65.981                   25.826                   26.065                   26.649                   26.706                   26.741                   26.753                   22.834                   22.961                   23.271                   23.301                   23.320                   23.326                   22.077                   22.163                   22.360                   22.378                   22.389                   22.393