% Model:              batchmodel_COIL_N_12_COIL_kr_3_COIL_kh_1_COIL_kturn_1.1_FUNZ_freq_10000_FUNZ_I_eff_1000.mph
% Version:            COMSOL 5.6.0.280
% Date:               Feb 1 2022, 23:41
% Table:              Tabella 1 - GRIGLIA_T
% COIL_N                 COIL_kr                  COIL_kh                  COIL_kturn               FUNZ_freq                FUNZ_I_eff               Time (s)                 Temperatura (degC), Punto: (0, 0)Temperatura (degC), Punto: (15, 0)Temperatura (degC), Punto: (28.051, 0)Temperatura (degC), Punto: (29.025, 0)Temperatura (degC), Punto: (29.61, 0)Temperatura (degC), Punto: (29.805, 0)Temperatura (degC), Punto: (0, 62.5)Temperatura (degC), Punto: (15, 62.5)Temperatura (degC), Punto: (28.051, 62.5)Temperatura (degC), Punto: (29.025, 62.5)Temperatura (degC), Punto: (29.61, 62.5)Temperatura (degC), Punto: (29.805, 62.5)Temperatura (degC), Punto: (0, 125)Temperatura (degC), Punto: (15, 125)Temperatura (degC), Punto: (28.051, 125)Temperatura (degC), Punto: (29.025, 125)Temperatura (degC), Punto: (29.61, 125)Temperatura (degC), Punto: (29.805, 125)Temperatura (degC), Punto: (0, 187.5)Temperatura (degC), Punto: (15, 187.5)Temperatura (degC), Punto: (28.051, 187.5)Temperatura (degC), Punto: (29.025, 187.5)Temperatura (degC), Punto: (29.61, 187.5)Temperatura (degC), Punto: (29.805, 187.5)Temperatura (degC), Punto: (0, 250)Temperatura (degC), Punto: (15, 250)Temperatura (degC), Punto: (28.051, 250)Temperatura (degC), Punto: (29.025, 250)Temperatura (degC), Punto: (29.61, 250)Temperatura (degC), Punto: (29.805, 250)Temperatura (degC), Punto: (0, 312.5)Temperatura (degC), Punto: (15, 312.5)Temperatura (degC), Punto: (28.051, 312.5)Temperatura (degC), Punto: (29.025, 312.5)Temperatura (degC), Punto: (29.61, 312.5)Temperatura (degC), Punto: (29.805, 312.5)Temperatura (degC), Punto: (0, 375)Temperatura (degC), Punto: (15, 375)Temperatura (degC), Punto: (28.051, 375)Temperatura (degC), Punto: (29.025, 375)Temperatura (degC), Punto: (29.61, 375)Temperatura (degC), Punto: (29.805, 375)Temperatura (degC), Punto: (0, 437.5)Temperatura (degC), Punto: (15, 437.5)Temperatura (degC), Punto: (28.051, 437.5)Temperatura (degC), Punto: (29.025, 437.5)Temperatura (degC), Punto: (29.61, 437.5)Temperatura (degC), Punto: (29.805, 437.5)Temperatura (degC), Punto: (0, 468.75)Temperatura (degC), Punto: (15, 468.75)Temperatura (degC), Punto: (28.051, 468.75)Temperatura (degC), Punto: (29.025, 468.75)Temperatura (degC), Punto: (29.61, 468.75)Temperatura (degC), Punto: (29.805, 468.75)Temperatura (degC), Punto: (0, 492.19)Temperatura (degC), Punto: (15, 492.19)Temperatura (degC), Punto: (28.051, 492.19)Temperatura (degC), Punto: (29.025, 492.19)Temperatura (degC), Punto: (29.61, 492.19)Temperatura (degC), Punto: (29.805, 492.19)
12.000                   3.0000                   1.0000                   1.1000                   10000                    1000.0                   0.0000                   20.000                   20.000                   20.000                   20.000                   20.061                   20.218                   20.000                   20.000                   20.000                   20.000                   20.060                   20.215                   20.000                   20.000                   20.000                   20.000                   20.037                   20.157                   20.000                   20.000                   20.000                   20.000                   20.004                   20.037                   20.000                   20.000                   20.000                   20.000                   20.000                   20.006                   20.000                   20.000                   20.000                   20.000                   20.000                   20.001                   20.000                   20.000                   20.000                   20.000                   20.000                   20.001                   20.000                   20.000                   20.000                   20.000                   20.000                   20.000                   20.000                   20.000                   20.000                   20.000                   20.000                   20.000                   20.000                   20.000                   20.000                   20.000                   20.000                   20.000
12.000                   3.0000                   1.0000                   1.1000                   10000                    1000.0                   5.0000                   25.677                   44.627                   156.44                   172.57                   182.78                   185.55                   25.444                   43.992                   154.06                   169.85                   179.84                   182.56                   23.794                   36.774                   113.36                   124.07                   130.88                   132.86                   20.828                   23.888                   43.213                   45.875                   47.564                   48.127                   19.886                   20.049                   25.147                   25.846                   26.266                   26.402                   19.904                   19.754                   20.515                   20.672                   20.764                   20.798                   19.956                   19.882                   20.105                   20.166                   20.204                   20.216                   20.009                   20.042                   20.220                   20.244                   20.259                   20.264                   20.007                   20.030                   20.157                   20.174                   20.185                   20.189                   20.006                   20.025                   20.123                   20.136                   20.144                   20.147
12.000                   3.0000                   1.0000                   1.1000                   10000                    1000.0                   10.000                   61.717                   106.82                   272.52                   294.27                   307.52                   310.71                   60.722                   105.29                   269.52                   290.44                   303.10                   306.26                   48.421                   79.597                   192.60                   207.02                   215.62                   218.03                   28.155                   37.429                   71.584                   75.757                   77.684                   78.248                   22.055                   25.952                   46.105                   49.019                   50.087                   50.311                   20.102                   20.598                   23.705                   24.240                   24.538                   24.575                   20.033                   20.246                   21.502                   21.630                   21.695                   21.714                   20.062                   20.131                   20.357                   20.382                   20.398                   20.403                   20.049                   20.099                   20.260                   20.277                   20.288                   20.292                   20.042                   20.083                   20.206                   20.220                   20.228                   20.230
12.000                   3.0000                   1.0000                   1.1000                   10000                    1000.0                   15.000                   118.67                   180.33                   383.88                   409.78                   425.03                   428.44                   116.98                   178.54                   381.87                   406.75                   421.55                   425.02                   88.191                   130.83                   266.75                   283.33                   293.01                   295.55                   42.198                   56.143                   98.591                   103.37                   105.50                   106.05                   28.144                   35.789                   64.237                   67.547                   68.678                   68.844                   21.071                   22.166                   26.530                   27.119                   27.444                   27.501                   20.531                   21.064                   23.025                   23.181                   23.256                   23.277                   20.151                   20.240                   20.480                   20.505                   20.520                   20.525                   20.114                   20.177                   20.348                   20.366                   20.377                   20.380                   20.097                   20.148                   20.282                   20.295                   20.303                   20.306
12.000                   3.0000                   1.0000                   1.1000                   10000                    1000.0                   20.000                   184.85                   257.84                   494.55                   524.37                   541.66                   545.41                   182.52                   255.74                   492.56                   521.63                   538.56                   542.35                   135.37                   185.41                   337.73                   355.80                   366.29                   368.91                   60.597                   77.503                   123.44                   128.20                   130.30                   130.83                   36.927                   47.139                   78.958                   82.151                   83.287                   83.406                   22.702                   24.216                   29.266                   29.926                   30.305                   30.400                   21.432                   22.234                   24.694                   24.866                   24.947                   24.969                   20.270                   20.369                   20.615                   20.638                   20.653                   20.658                   20.189                   20.258                   20.434                   20.451                   20.462                   20.465                   20.161                   20.218                   20.355                   20.368                   20.377                   20.379
12.000                   3.0000                   1.0000                   1.1000                   10000                    1000.0                   25.000                   255.47                   336.68                   605.34                   640.71                   660.95                   665.20                   252.19                   333.23                   597.89                   631.87                   651.30                   655.42                   186.72                   241.39                   405.43                   424.50                   435.79                   438.52                   81.428                   99.047                   142.62                   146.77                   148.97                   149.60                   46.033                   55.700                   78.942                   80.795                   81.570                   81.708                   24.720                   26.257                   30.238                   30.662                   30.910                   30.982                   22.523                   23.353                   25.294                   25.417                   25.478                   25.496                   20.420                   20.525                   20.783                   20.808                   20.824                   20.829                   20.273                   20.345                   20.526                   20.544                   20.555                   20.559                   20.233                   20.291                   20.432                   20.446                   20.454                   20.457
12.000                   3.0000                   1.0000                   1.1000                   10000                    1000.0                   30.000                   325.59                   412.76                   705.04                   747.17                   770.82                   775.59                   320.95                   407.14                   688.88                   727.07                   748.69                   753.13                   238.93                   297.36                   473.06                   493.42                   505.56                   508.42                   102.74                   120.20                   162.11                   166.01                   168.41                   169.15                   54.094                   62.046                   77.909                   79.032                   79.547                   79.667                   26.831                   28.213                   31.172                   31.405                   31.524                   31.557                   23.627                   24.399                   26.018                   26.123                   26.183                   26.201                   20.594                   20.705                   20.980                   21.007                   21.024                   21.030                   20.364                   20.438                   20.626                   20.644                   20.656                   20.660                   20.309                   20.369                   20.513                   20.527                   20.536                   20.539
12.000                   3.0000                   1.0000                   1.1000                   10000                    1000.0                   35.000                   392.22                   483.08                   796.07                   843.98                   869.12                   874.01                   385.93                   474.93                   768.81                   811.58                   834.41                   838.94                   290.48                   352.53                   540.33                   562.11                   574.71                   577.69                   124.25                   142.03                   186.51                   190.79                   193.29                   194.04                   61.735                   69.341                   88.410                   90.338                   91.022                   91.094                   29.038                   30.392                   33.745                   34.090                   34.261                   34.296                   24.770                   25.580                   27.619                   27.762                   27.845                   27.870                   20.792                   20.908                   21.195                   21.223                   21.241                   21.247                   20.461                   20.537                   20.730                   20.749                   20.761                   20.765                   20.389                   20.450                   20.597                   20.611                   20.620                   20.623
12.000                   3.0000                   1.0000                   1.1000                   10000                    1000.0                   40.000                   453.91                   546.68                   886.17                   935.58                   959.69                   964.11                   445.91                   536.26                   853.63                   900.67                   924.17                   928.56                   340.71                   405.89                   605.38                   629.15                   642.76                   645.86                   145.94                   164.10                   209.84                   214.28                   216.86                   217.63                   68.970                   76.253                   94.808                   96.619                   97.301                   97.401                   31.319                   32.637                   35.911                   36.247                   36.426                   36.469                   25.897                   26.690                   28.555                   28.680                   28.752                   28.773                   21.012                   21.132                   21.422                   21.450                   21.467                   21.473                   20.566                   20.643                   20.837                   20.856                   20.868                   20.872                   20.472                   20.534                   20.682                   20.696                   20.705                   20.707
12.000                   3.0000                   1.0000                   1.1000                   10000                    1000.0                   45.000                   511.77                   605.04                   964.01                   1007.7                   1027.4                   1030.7                   502.11                   593.10                   939.93                   986.13                   1008.2                   1012.1                   389.56                   457.33                   667.78                   694.13                   709.40                   712.63                   167.56                   185.73                   230.37                   234.73                   237.42                   238.24                   75.436                   81.255                   92.280                   93.059                   93.529                   93.686                   33.569                   34.722                   37.081                   37.272                   37.388                   37.427                   26.917                   27.556                   28.646                   28.717                   28.757                   28.771                   21.246                   21.366                   21.652                   21.679                   21.696                   21.701                   20.675                   20.753                   20.945                   20.964                   20.975                   20.979                   20.558                   20.621                   20.768                   20.782                   20.790                   20.793
12.000                   3.0000                   1.0000                   1.1000                   10000                    1000.0                   50.000                   563.18                   653.33                   978.67                   1009.3                   1022.7                   1024.9                   552.67                   642.16                   998.99                   1035.5                   1049.6                   1051.7                   434.93                   503.92                   715.13                   742.04                   757.72                   760.99                   188.79                   206.93                   252.15                   256.64                   259.41                   260.25                   80.633                   85.246                   94.524                   95.303                   95.775                   95.931                   35.642                   36.645                   38.782                   38.971                   39.086                   39.125                   27.656                   28.140                   29.008                   29.074                   29.114                   29.127                   21.485                   21.603                   21.884                   21.911                   21.928                   21.933                   20.792                   20.869                   21.060                   21.079                   21.090                   21.094                   20.649                   20.711                   20.857                   20.871                   20.879                   20.882
12.000                   3.0000                   1.0000                   1.1000                   10000                    1000.0                   55.000                   608.67                   693.75                   978.57                   999.54                   1009.2                   1010.8                   598.19                   685.03                   1039.5                   1067.0                   1074.9                   1075.6                   477.31                   546.46                   756.57                   784.63                   800.76                   804.05                   209.72                   228.00                   274.14                   278.76                   281.60                   282.46                   85.405                   89.327                   97.859                   98.631                   99.103                   99.259                   37.589                   38.494                   40.517                   40.704                   40.818                   40.856                   28.229                   28.610                   29.364                   29.428                   29.467                   29.480                   21.723                   21.838                   22.115                   22.141                   22.158                   22.163                   20.914                   20.991                   21.180                   21.198                   21.210                   21.214                   20.742                   20.804                   20.949                   20.963                   20.971                   20.974
12.000                   3.0000                   1.0000                   1.1000                   10000                    1000.0                   60.000                   647.80                   727.32                   985.98                   1002.0                   1009.3                   1010.5                   638.10                   721.42                   1055.8                   1076.3                   1081.4                   1081.6                   516.71                   584.91                   796.55                   825.66                   841.90                   845.14                   230.40                   248.94                   296.10                   300.86                   303.78                   304.66                   90.098                   93.674                   101.89                   102.66                   103.14                   103.30                   39.441                   40.288                   42.248                   42.433                   42.546                   42.584                   28.697                   29.017                   29.709                   29.772                   29.811                   29.824                   21.957                   22.070                   22.343                   22.369                   22.385                   22.391                   21.041                   21.117                   21.305                   21.323                   21.334                   21.338                   20.839                   20.900                   21.045                   21.058                   21.066                   21.069
12.000                   3.0000                   1.0000                   1.1000                   10000                    1000.0                   65.000                   681.64                   757.98                   999.83                   1013.1                   1018.6                   1019.4                   673.16                   754.32                   1060.1                   1075.4                   1079.3                   1079.3                   553.63                   620.17                   834.63                   863.72                   879.51                   882.59                   250.86                   269.71                   317.89                   322.76                   325.76                   326.65                   94.857                   98.254                   106.34                   107.12                   107.59                   107.75                   41.240                   42.049                   43.970                   44.154                   44.267                   44.305                   29.113                   29.396                   30.052                   30.114                   30.152                   30.165                   22.188                   22.299                   22.568                   22.595                   22.611                   22.616                   21.171                   21.247                   21.433                   21.451                   21.463                   21.466                   20.939                   21.000                   21.143                   21.157                   21.165                   21.168
12.000                   3.0000                   1.0000                   1.1000                   10000                    1000.0                   70.000                   709.18                   789.40                   1017.8                   1029.3                   1033.4                   1033.7                   702.32                   786.63                   1062.3                   1074.5                   1077.5                   1077.4                   587.60                   652.05                   868.06                   895.83                   910.64                   913.50                   271.04                   290.18                   339.27                   344.24                   347.30                   348.19                   99.783                   103.09                   111.13                   111.91                   112.39                   112.55                   43.001                   43.786                   45.680                   45.863                   45.975                   46.013                   29.502                   29.763                   30.395                   30.457                   30.495                   30.507                   22.417                   22.526                   22.792                   22.818                   22.834                   22.839                   21.305                   21.380                   21.565                   21.583                   21.594                   21.598                   21.042                   21.103                   21.245                   21.258                   21.267                   21.269
12.000                   3.0000                   1.0000                   1.1000                   10000                    1000.0                   75.000                   730.61                   820.20                   1036.1                   1046.4                   1049.4                   1049.4                   724.71                   816.97                   1063.7                   1074.2                   1076.5                   1076.3                   616.82                   678.92                   894.99                   920.65                   934.24                   936.83                   290.64                   310.06                   359.96                   365.01                   368.12                   369.03                   105.01                   108.32                   116.39                   117.17                   117.66                   117.82                   44.730                   45.506                   47.387                   47.569                   47.681                   47.718                   29.875                   30.128                   30.751                   30.812                   30.850                   30.862                   22.641                   22.749                   23.013                   23.039                   23.054                   23.060                   21.443                   21.518                   21.702                   21.720                   21.731                   21.735                   21.151                   21.211                   21.352                   21.366                   21.374                   21.377