% Model:              batchmodel_COIL_N_12_COIL_kr_2.25_COIL_kh_3_COIL_kturn_1.7_FUNZ_freq_10000_FUNZ_I_eff_4000.mph
% Version:            COMSOL 5.6.0.280
% Date:               Feb 1 2022, 23:36
% Table:              Tabella 1 - GRIGLIA_T
% COIL_N                 COIL_kr                  COIL_kh                  COIL_kturn               FUNZ_freq                FUNZ_I_eff               Time (s)                 Temperatura (degC), Punto: (0, 0)Temperatura (degC), Punto: (15, 0)Temperatura (degC), Punto: (28.051, 0)Temperatura (degC), Punto: (29.025, 0)Temperatura (degC), Punto: (29.61, 0)Temperatura (degC), Punto: (29.805, 0)Temperatura (degC), Punto: (0, 62.5)Temperatura (degC), Punto: (15, 62.5)Temperatura (degC), Punto: (28.051, 62.5)Temperatura (degC), Punto: (29.025, 62.5)Temperatura (degC), Punto: (29.61, 62.5)Temperatura (degC), Punto: (29.805, 62.5)Temperatura (degC), Punto: (0, 125)Temperatura (degC), Punto: (15, 125)Temperatura (degC), Punto: (28.051, 125)Temperatura (degC), Punto: (29.025, 125)Temperatura (degC), Punto: (29.61, 125)Temperatura (degC), Punto: (29.805, 125)Temperatura (degC), Punto: (0, 187.5)Temperatura (degC), Punto: (15, 187.5)Temperatura (degC), Punto: (28.051, 187.5)Temperatura (degC), Punto: (29.025, 187.5)Temperatura (degC), Punto: (29.61, 187.5)Temperatura (degC), Punto: (29.805, 187.5)Temperatura (degC), Punto: (0, 250)Temperatura (degC), Punto: (15, 250)Temperatura (degC), Punto: (28.051, 250)Temperatura (degC), Punto: (29.025, 250)Temperatura (degC), Punto: (29.61, 250)Temperatura (degC), Punto: (29.805, 250)Temperatura (degC), Punto: (0, 312.5)Temperatura (degC), Punto: (15, 312.5)Temperatura (degC), Punto: (28.051, 312.5)Temperatura (degC), Punto: (29.025, 312.5)Temperatura (degC), Punto: (29.61, 312.5)Temperatura (degC), Punto: (29.805, 312.5)Temperatura (degC), Punto: (0, 375)Temperatura (degC), Punto: (15, 375)Temperatura (degC), Punto: (28.051, 375)Temperatura (degC), Punto: (29.025, 375)Temperatura (degC), Punto: (29.61, 375)Temperatura (degC), Punto: (29.805, 375)Temperatura (degC), Punto: (0, 437.5)Temperatura (degC), Punto: (15, 437.5)Temperatura (degC), Punto: (28.051, 437.5)Temperatura (degC), Punto: (29.025, 437.5)Temperatura (degC), Punto: (29.61, 437.5)Temperatura (degC), Punto: (29.805, 437.5)Temperatura (degC), Punto: (0, 468.75)Temperatura (degC), Punto: (15, 468.75)Temperatura (degC), Punto: (28.051, 468.75)Temperatura (degC), Punto: (29.025, 468.75)Temperatura (degC), Punto: (29.61, 468.75)Temperatura (degC), Punto: (29.805, 468.75)Temperatura (degC), Punto: (0, 492.19)Temperatura (degC), Punto: (15, 492.19)Temperatura (degC), Punto: (28.051, 492.19)Temperatura (degC), Punto: (29.025, 492.19)Temperatura (degC), Punto: (29.61, 492.19)Temperatura (degC), Punto: (29.805, 492.19)
12.000                   2.2500                   3.0000                   1.7000                   10000                    4000.0                   0.0000                   20.000                   20.000                   20.000                   20.000                   20.076                   20.245                   20.000                   20.000                   20.000                   20.000                   20.101                   20.294                   20.000                   20.000                   20.000                   20.000                   20.089                   20.271                   20.000                   20.000                   20.000                   20.000                   20.084                   20.260                   20.000                   20.000                   20.000                   20.000                   20.103                   20.299                   20.000                   20.000                   20.000                   20.000                   20.077                   20.247                   20.000                   20.000                   20.000                   20.000                   20.099                   20.288                   20.000                   20.000                   20.000                   20.000                   20.097                   20.283                   20.000                   20.000                   20.000                   20.000                   20.106                   20.304                   20.000                   20.000                   20.000                   20.000                   20.101                   20.294
12.000                   2.2500                   3.0000                   1.7000                   10000                    4000.0                   5.0000                   26.069                   50.239                   195.49                   215.47                   225.94                   228.92                   26.794                   54.483                   223.80                   248.15                   263.22                   267.09                   26.376                   52.254                   210.43                   233.33                   247.70                   251.29                   26.227                   51.469                   205.29                   227.26                   240.89                   244.46                   26.899                   55.009                   226.73                   251.58                   267.01                   270.88                   25.982                   50.057                   195.06                   215.72                   228.70                   232.05                   26.663                   53.751                   218.52                   242.50                   257.49                   261.21                   26.595                   53.409                   217.72                   241.64                   256.60                   260.34                   27.162                   56.069                   232.75                   258.35                   274.13                   278.13                   30.481                   63.838                   232.52                   255.62                   270.12                   273.68
12.000                   2.2500                   3.0000                   1.7000                   10000                    4000.0                   10.000                   67.423                   126.03                   331.77                   356.71                   370.06                   373.89                   72.218                   138.11                   382.33                   415.00                   434.50                   438.89                   69.759                   132.27                   359.81                   389.29                   407.10                   411.20                   68.999                   130.44                   355.12                   384.92                   402.84                   407.02                   72.988                   139.97                   389.56                   423.09                   442.78                   447.23                   67.142                   125.69                   335.34                   362.26                   378.77                   382.67                   71.240                   135.59                   371.78                   403.36                   422.32                   426.63                   71.167                   135.64                   374.56                   406.41                   425.58                   429.90                   74.843                   142.75                   393.58                   427.23                   446.96                   451.41                   83.756                   154.86                   381.85                   409.15                   425.08                   429.01
12.000                   2.2500                   3.0000                   1.7000                   10000                    4000.0                   15.000                   137.22                   214.97                   467.69                   499.23                   517.59                   521.81                   147.32                   234.52                   538.86                   580.67                   605.02                   609.96                   142.55                   225.81                   507.80                   545.38                   566.87                   571.42                   141.10                   222.90                   496.03                   531.24                   551.41                   555.86                   149.17                   238.10                   549.29                   591.91                   616.21                   621.22                   137.06                   215.55                   477.27                   511.73                   532.10                   536.44                   145.21                   230.60                   527.37                   568.10                   591.68                   596.55                   145.56                   231.45                   528.31                   568.23                   591.25                   596.07                   152.90                   241.98                   553.43                   596.36                   620.98                   626.01                   164.28                   253.64                   523.34                   556.21                   574.11                   578.36
12.000                   2.2500                   3.0000                   1.7000                   10000                    4000.0                   20.000                   220.40                   307.78                   599.68                   638.93                   659.39                   663.06                   235.43                   333.63                   682.02                   731.70                   759.63                   765.21                   228.95                   323.32                   652.10                   698.36                   722.66                   727.74                   226.59                   318.27                   622.77                   661.34                   681.80                   686.39                   238.40                   338.42                   691.55                   742.10                   771.82                   777.74                   220.95                   310.40                   614.60                   654.40                   677.06                   681.92                   232.45                   329.19                   671.82                   720.07                   748.10                   753.67                   233.38                   330.35                   669.13                   715.71                   741.68                   747.07                   243.60                   343.21                   698.52                   750.36                   779.31                   785.04                   254.45                   352.31                   650.98                   688.84                   709.80                   714.18
12.000                   2.2500                   3.0000                   1.7000                   10000                    4000.0                   25.000                   305.00                   397.52                   697.69                   732.51                   745.92                   748.61                   323.90                   428.22                   798.07                   855.17                   883.28                   889.05                   316.59                   417.25                   761.72                   812.55                   835.65                   840.43                   312.89                   409.14                   719.12                   757.17                   774.02                   778.13                   327.60                   433.24                   807.01                   864.16                   894.65                   900.53                   306.89                   402.70                   719.26                   756.55                   777.69                   782.82                   320.57                   423.86                   784.80                   837.47                   866.57                   872.37                   321.87                   424.70                   781.45                   834.59                   861.11                   866.70                   333.60                   438.58                   813.10                   870.53                   898.41                   904.00                   343.24                   444.53                   741.24                   777.54                   797.26                   800.68
12.000                   2.2500                   3.0000                   1.7000                   10000                    4000.0                   30.000                   382.36                   478.21                   805.64                   861.05                   890.18                   895.64                   403.98                   512.12                   928.16                   987.84                   1015.2                   1019.9                   396.54                   500.77                   880.88                   940.57                   969.44                   974.57                   390.93                   489.92                   838.22                   896.98                   926.60                   932.02                   407.62                   516.42                   982.02                   1046.8                   1069.8                   1073.0                   385.88                   485.37                   831.23                   888.76                   917.90                   923.25                   400.74                   507.71                   911.97                   972.37                   1000.6                   1005.5                   401.89                   507.98                   908.74                   969.12                   997.54                   1002.5                   413.86                   521.65                   938.31                   994.93                   1020.4                   1024.7                   421.57                   522.37                   829.90                   877.13                   901.71                   906.31
12.000                   2.2500                   3.0000                   1.7000                   10000                    4000.0                   35.000                   452.86                   550.05                   909.26                   960.59                   985.42                   989.83                   476.23                   585.24                   959.09                   991.50                   1006.1                   1008.6                   468.67                   573.06                   966.75                   1016.0                   1037.1                   1040.5                   461.42                   561.49                   935.55                   984.70                   1007.9                   1011.9                   479.30                   590.98                   1097.3                   1125.4                   1131.7                   1131.9                   457.47                   557.65                   927.98                   977.47                   1001.1                   1005.2                   472.96                   579.99                   962.46                   1003.8                   1022.5                   1025.6                   473.71                   579.89                   973.85                   1019.3                   1038.4                   1041.4                   485.38                   593.66                   989.10                   1024.2                   1037.5                   1039.5                   489.42                   587.52                   911.10                   953.19                   974.08                   977.85
12.000                   2.2500                   3.0000                   1.7000                   10000                    4000.0                   40.000                   516.54                   612.82                   959.68                   997.57                   1015.3                   1018.4                   541.38                   646.84                   971.47                   992.79                   1002.3                   1003.9                   533.19                   634.62                   1061.7                   1094.3                   1102.6                   1103.2                   524.99                   623.55                   967.32                   997.56                   1011.2                   1013.5                   544.27                   656.02                   1098.7                   1117.2                   1121.0                   1120.8                   521.65                   619.77                   962.13                   996.81                   1013.1                   1015.9                   537.66                   640.68                   974.12                   998.26                   1008.8                   1010.6                   538.04                   640.54                   1016.1                   1045.7                   1055.3                   1056.5                   549.62                   655.00                   1037.9                   1063.5                   1071.0                   1071.7                   549.56                   643.31                   963.82                   995.93                   1011.1                   1013.7
12.000                   2.2500                   3.0000                   1.7000                   10000                    4000.0                   45.000                   573.80                   665.15                   983.88                   1014.1                   1027.6                   1029.8                   598.88                   697.00                   995.98                   1013.5                   1020.5                   1021.6                   590.28                   686.74                   1085.2                   1105.2                   1109.7                   1109.7                   581.94                   675.77                   999.48                   1023.1                   1032.3                   1033.6                   601.84                   707.96                   1096.4                   1111.1                   1114.0                   1113.7                   578.87                   671.20                   978.31                   1004.6                   1016.8                   1018.9                   594.78                   690.99                   996.55                   1015.2                   1022.6                   1023.7                   594.85                   691.27                   1040.8                   1062.0                   1068.1                   1068.6                   606.03                   705.32                   1059.2                   1077.3                   1081.9                   1082.0                   602.38                   691.04                   1013.9                   1036.5                   1044.5                   1045.5
12.000                   2.2500                   3.0000                   1.7000                   10000                    4000.0                   50.000                   623.36                   707.02                   996.75                   1020.9                   1031.2                   1032.8                   647.45                   737.34                   1030.1                   1045.5                   1050.4                   1050.7                   639.03                   729.23                   1082.2                   1097.4                   1100.6                   1100.5                   631.09                   718.40                   1035.0                   1055.1                   1061.3                   1061.8                   650.33                   748.77                   1094.3                   1106.3                   1108.3                   1108.0                   628.07                   712.52                   993.22                   1013.7                   1022.6                   1024.0                   643.32                   731.78                   1027.3                   1043.3                   1048.5                   1048.9                   643.20                   732.62                   1056.9                   1073.0                   1077.1                   1077.1                   653.47                   746.02                   1070.3                   1083.9                   1086.9                   1086.8                   647.64                   732.38                   1073.3                   1088.4                   1091.7                   1091.6
12.000                   2.2500                   3.0000                   1.7000                   10000                    4000.0                   55.000                   664.68                   740.22                   1001.2                   1019.7                   1027.6                   1028.8                   686.93                   773.65                   1060.6                   1073.0                   1075.8                   1075.7                   679.25                   765.70                   1077.6                   1089.7                   1092.1                   1091.9                   672.00                   753.91                   1058.8                   1074.7                   1078.8                   1078.9                   689.50                   784.94                   1089.9                   1099.8                   1101.3                   1100.9                   668.93                   746.06                   1010.4                   1027.1                   1033.5                   1034.3                   683.15                   767.94                   1055.7                   1068.7                   1071.8                   1071.8                   682.95                   769.04                   1067.8                   1080.0                   1082.6                   1082.4                   691.87                   782.98                   1078.1                   1088.7                   1090.6                   1090.3                   685.64                   772.99                   1104.2                   1113.5                   1114.7                   1114.2
12.000                   2.2500                   3.0000                   1.7000                   10000                    4000.0                   60.000                   697.97                   769.93                   1006.4                   1020.6                   1026.3                   1027.1                   717.19                   810.71                   1078.0                   1087.1                   1088.6                   1088.2                   710.83                   801.04                   1077.2                   1086.9                   1088.6                   1088.3                   704.70                   787.70                   1070.9                   1083.0                   1085.7                   1085.5                   719.20                   819.80                   1088.2                   1096.3                   1097.4                   1096.9                   701.67                   777.16                   1030.2                   1044.5                   1049.2                   1049.5                   714.09                   804.65                   1073.8                   1083.4                   1085.2                   1084.9                   713.88                   805.42                   1076.5                   1085.8                   1087.4                   1087.1                   720.96                   819.39                   1084.0                   1092.4                   1093.7                   1093.2                   716.09                   818.32                   1120.4                   1126.3                   1126.4                   1125.7
12.000                   2.2500                   3.0000                   1.7000                   10000                    4000.0                   65.000                   723.51                   801.30                   1019.7                   1031.1                   1035.2                   1035.6                   741.33                   847.21                   1088.6                   1095.4                   1096.1                   1095.6                   735.43                   835.97                   1080.2                   1088.0                   1089.0                   1088.6                   729.81                   822.00                   1077.2                   1086.7                   1088.3                   1088.0                   743.01                   853.36                   1090.5                   1097.2                   1097.8                   1097.2                   726.73                   809.82                   1046.7                   1058.6                   1061.8                   1061.8                   738.51                   841.25                   1084.9                   1092.2                   1093.0                   1092.5                   738.26                   841.40                   1083.9                   1091.2                   1092.0                   1091.5                   744.62                   854.59                   1089.8                   1096.4                   1097.0                   1096.5                   741.45                   864.64                   1133.1                   1136.9                   1136.2                   1135.4
12.000                   2.2500                   3.0000                   1.7000                   10000                    4000.0                   70.000                   743.76                   833.43                   1038.0                   1047.8                   1050.5                   1050.5                   762.91                   882.08                   1094.7                   1100.0                   1100.2                   1099.6                   756.33                   869.48                   1085.3                   1091.6                   1092.1                   1091.5                   750.30                   855.53                   1080.0                   1087.5                   1088.5                   1088.0                   764.46                   885.28                   1095.7                   1101.0                   1101.1                   1100.5                   746.81                   842.78                   1059.7                   1069.2                   1071.3                   1071.0                   759.91                   876.47                   1091.3                   1097.0                   1097.3                   1096.7                   759.56                   875.89                   1090.2                   1096.0                   1096.3                   1095.7                   766.54                   888.15                   1095.6                   1100.8                   1100.8                   1100.2                   766.22                   909.91                   1143.2                   1145.8                   1144.6                   1143.7
12.000                   2.2500                   3.0000                   1.7000                   10000                    4000.0                   75.000                   762.69                   865.18                   1056.7                   1065.0                   1066.6                   1066.3                   787.83                   913.55                   1100.2                   1104.4                   1104.1                   1103.4                   778.88                   900.04                   1090.6                   1095.6                   1095.6                   1095.0                   770.95                   886.41                   1082.8                   1088.8                   1089.3                   1088.7                   789.40                   915.02                   1101.6                   1105.7                   1105.4                   1104.7                   766.29                   874.24                   1068.8                   1076.0                   1077.2                   1076.8                   784.03                   908.25                   1096.8                   1101.3                   1101.2                   1100.5                   783.44                   907.13                   1095.9                   1100.4                   1100.3                   1099.6                   792.88                   919.36                   1101.8                   1105.6                   1105.2                   1104.5                   797.79                   950.63                   1153.1                   1154.7                   1153.3                   1152.3