% Model:              batchmodel_COIL_N_12_COIL_kr_3_COIL_kh_1_COIL_kturn_1.1_FUNZ_freq_2000_FUNZ_I_eff_1000.mph
% Version:            COMSOL 5.6.0.280
% Date:               Feb 1 2022, 22:56
% Table:              Tabella 1 - GRIGLIA_T
% COIL_N                 COIL_kr                  COIL_kh                  COIL_kturn               FUNZ_freq                FUNZ_I_eff               Time (s)                 Temperatura (degC), Punto: (0, 0)Temperatura (degC), Punto: (15, 0)Temperatura (degC), Punto: (25.641, 0)Temperatura (degC), Punto: (27.821, 0)Temperatura (degC), Punto: (29.128, 0)Temperatura (degC), Punto: (29.564, 0)Temperatura (degC), Punto: (0, 62.5)Temperatura (degC), Punto: (15, 62.5)Temperatura (degC), Punto: (25.641, 62.5)Temperatura (degC), Punto: (27.821, 62.5)Temperatura (degC), Punto: (29.128, 62.5)Temperatura (degC), Punto: (29.564, 62.5)Temperatura (degC), Punto: (0, 125)Temperatura (degC), Punto: (15, 125)Temperatura (degC), Punto: (25.641, 125)Temperatura (degC), Punto: (27.821, 125)Temperatura (degC), Punto: (29.128, 125)Temperatura (degC), Punto: (29.564, 125)Temperatura (degC), Punto: (0, 187.5)Temperatura (degC), Punto: (15, 187.5)Temperatura (degC), Punto: (25.641, 187.5)Temperatura (degC), Punto: (27.821, 187.5)Temperatura (degC), Punto: (29.128, 187.5)Temperatura (degC), Punto: (29.564, 187.5)Temperatura (degC), Punto: (0, 250)Temperatura (degC), Punto: (15, 250)Temperatura (degC), Punto: (25.641, 250)Temperatura (degC), Punto: (27.821, 250)Temperatura (degC), Punto: (29.128, 250)Temperatura (degC), Punto: (29.564, 250)Temperatura (degC), Punto: (0, 312.5)Temperatura (degC), Punto: (15, 312.5)Temperatura (degC), Punto: (25.641, 312.5)Temperatura (degC), Punto: (27.821, 312.5)Temperatura (degC), Punto: (29.128, 312.5)Temperatura (degC), Punto: (29.564, 312.5)Temperatura (degC), Punto: (0, 375)Temperatura (degC), Punto: (15, 375)Temperatura (degC), Punto: (25.641, 375)Temperatura (degC), Punto: (27.821, 375)Temperatura (degC), Punto: (29.128, 375)Temperatura (degC), Punto: (29.564, 375)Temperatura (degC), Punto: (0, 437.5)Temperatura (degC), Punto: (15, 437.5)Temperatura (degC), Punto: (25.641, 437.5)Temperatura (degC), Punto: (27.821, 437.5)Temperatura (degC), Punto: (29.128, 437.5)Temperatura (degC), Punto: (29.564, 437.5)Temperatura (degC), Punto: (0, 468.75)Temperatura (degC), Punto: (15, 468.75)Temperatura (degC), Punto: (25.641, 468.75)Temperatura (degC), Punto: (27.821, 468.75)Temperatura (degC), Punto: (29.128, 468.75)Temperatura (degC), Punto: (29.564, 468.75)Temperatura (degC), Punto: (0, 492.19)Temperatura (degC), Punto: (15, 492.19)Temperatura (degC), Punto: (25.641, 492.19)Temperatura (degC), Punto: (27.821, 492.19)Temperatura (degC), Punto: (29.128, 492.19)Temperatura (degC), Punto: (29.564, 492.19)
12.000                   3.0000                   1.0000                   1.1000                   2000.0                   1000.0                   0.0000                   20.000                   20.000                   20.000                   20.000                   20.010                   20.041                   20.000                   20.000                   20.000                   20.000                   20.009                   20.040                   20.000                   20.000                   20.000                   20.000                   20.005                   20.028                   20.000                   20.000                   20.000                   20.000                   20.000                   20.006                   20.000                   20.000                   20.000                   20.000                   20.000                   20.001                   20.000                   20.000                   20.000                   20.000                   20.000                   20.000                   20.000                   20.000                   20.000                   20.000                   20.000                   20.000                   20.000                   20.000                   20.000                   20.000                   20.000                   20.000                   20.000                   20.000                   20.000                   20.000                   20.000                   20.000                   20.000                   20.000                   20.000                   20.000                   20.000                   20.000
12.000                   3.0000                   1.0000                   1.1000                   2000.0                   1000.0                   5.0000                   22.673                   30.719                   64.767                   77.335                   85.800                   88.345                   22.675                   30.756                   64.896                   77.880                   86.437                   88.932                   21.850                   27.513                   52.556                   62.632                   68.961                   70.908                   20.498                   22.095                   29.266                   32.087                   33.854                   34.398                   19.932                   19.937                   21.818                   23.469                   23.561                   23.574                   20.095                   20.468                   22.510                   23.403                   23.982                   24.158                   20.065                   20.327                   21.727                   22.385                   22.856                   22.922                   20.043                   20.200                   21.091                   21.543                   21.848                   21.935                   20.009                   20.037                   20.163                   20.204                   20.222                   20.227                   20.004                   20.015                   20.058                   20.074                   20.084                   20.088
12.000                   3.0000                   1.0000                   1.1000                   2000.0                   1000.0                   10.000                   37.830                   57.138                   105.11                   118.49                   126.67                   129.04                   37.380                   55.970                   101.51                   115.11                   123.65                   126.15                   32.248                   45.652                   79.681                   89.139                   94.424                   95.971                   24.015                   28.635                   40.681                   44.385                   46.582                   47.186                   20.985                   22.933                   30.548                   32.747                   32.951                   32.970                   20.988                   22.287                   25.788                   26.798                   27.315                   27.426                   20.795                   21.817                   24.350                   25.035                   25.327                   25.364                   20.399                   20.896                   22.225                   22.665                   22.907                   22.940                   20.092                   20.184                   20.386                   20.435                   20.460                   20.467                   20.031                   20.061                   20.132                   20.154                   20.169                   20.174
12.000                   3.0000                   1.0000                   1.1000                   2000.0                   1000.0                   15.000                   63.293                   88.480                   143.93                   158.78                   167.81                   170.33                   61.476                   85.149                   136.12                   150.51                   159.33                   161.81                   49.667                   67.091                   105.83                   116.24                   121.65                   123.12                   30.941                   37.604                   52.368                   56.351                   58.451                   58.972                   24.402                   28.272                   39.376                   42.491                   42.778                   42.767                   22.962                   24.928                   29.281                   30.418                   31.011                   31.144                   22.562                   24.304                   28.189                   29.225                   29.679                   29.730                   21.201                   22.023                   24.066                   24.759                   25.096                   25.157                   20.289                   20.427                   20.683                   20.740                   20.772                   20.782                   20.097                   20.140                   20.227                   20.251                   20.266                   20.272
12.000                   3.0000                   1.0000                   1.1000                   2000.0                   1000.0                   20.000                   92.556                   119.91                   176.05                   191.80                   201.83                   204.52                   89.119                   115.00                   168.19                   183.23                   192.86                   195.46                   69.602                   88.319                   125.72                   135.96                   142.57                   144.47                   39.002                   45.859                   58.488                   61.579                   63.476                   64.092                   28.272                   31.801                   37.741                   38.801                   39.393                   39.575                   25.074                   26.759                   29.225                   29.606                   29.777                   29.823                   24.426                   25.921                   28.028                   28.311                   28.414                   28.438                   22.025                   22.717                   23.705                   23.836                   23.888                   23.900                   20.532                   20.667                   20.868                   20.906                   20.926                   20.933                   20.192                   20.241                   20.329                   20.352                   20.366                   20.370
12.000                   3.0000                   1.0000                   1.1000                   2000.0                   1000.0                   25.000                   122.87                   152.10                   211.70                   228.69                   239.62                   242.46                   117.68                   145.23                   201.20                   217.08                   227.39                   230.13                   90.009                   109.44                   147.35                   157.85                   165.10                   167.19                   47.218                   54.112                   66.405                   69.487                   71.469                   72.156                   31.906                   35.196                   40.421                   41.211                   41.973                   42.253                   26.933                   28.333                   30.126                   30.360                   30.446                   30.469                   25.949                   27.133                   28.494                   28.627                   28.657                   28.664                   22.686                   23.224                   23.767                   23.759                   23.761                   23.757                   20.781                   20.911                   21.098                   21.133                   21.150                   21.156                   20.305                   20.356                   20.446                   20.468                   20.481                   20.486
12.000                   3.0000                   1.0000                   1.1000                   2000.0                   1000.0                   30.000                   153.83                   183.96                   245.50                   263.10                   274.31                   277.18                   146.97                   175.51                   233.69                   250.27                   260.89                   263.65                   110.68                   130.43                   169.43                   180.29                   187.50                   189.54                   55.272                   61.875                   73.853                   76.936                   78.916                   79.580                   34.478                   37.090                   41.132                   41.888                   42.502                   42.719                   28.082                   29.120                   30.464                   30.678                   30.786                   30.822                   26.651                   27.453                   28.338                   28.431                   28.467                   28.479                   22.980                   23.342                   23.705                   23.715                   23.725                   23.727                   20.992                   21.098                   21.255                   21.286                   21.304                   21.310                   20.442                   20.492                   20.580                   20.602                   20.616                   20.620
12.000                   3.0000                   1.0000                   1.1000                   2000.0                   1000.0                   35.000                   184.79                   215.88                   279.56                   297.85                   309.40                   312.30                   176.29                   205.84                   266.35                   283.67                   294.65                   297.45                   131.36                   151.48                   191.60                   202.84                   210.06                   212.08                   63.296                   69.623                   81.285                   84.361                   86.340                   86.985                   36.938                   38.914                   41.911                   42.615                   43.078                   43.240                   29.128                   29.814                   30.704                   30.884                   31.004                   31.050                   27.259                   27.699                   28.113                   28.156                   28.190                   28.204                   23.228                   23.419                   23.594                   23.611                   23.623                   23.631                   21.190                   21.273                   21.398                   21.427                   21.445                   21.451                   20.579                   20.627                   20.714                   20.736                   20.750                   20.754
12.000                   3.0000                   1.0000                   1.1000                   2000.0                   1000.0                   40.000                   215.75                   248.03                   314.66                   333.94                   346.08                   349.06                   205.66                   236.38                   299.69                   317.94                   329.44                   332.30                   152.11                   172.72                   214.12                   225.83                   233.32                   235.38                   71.199                   77.306                   88.655                   91.688                   93.668                   94.312                   38.945                   40.461                   42.968                   43.545                   43.848                   43.980                   29.761                   30.137                   30.552                   30.645                   30.734                   30.775                   27.491                   27.644                   27.610                   27.560                   27.562                   27.576                   23.289                   23.332                   23.287                   23.265                   23.257                   23.264                   21.340                   21.398                   21.490                   21.514                   21.531                   21.537                   20.714                   20.761                   20.846                   20.868                   20.882                   20.887
12.000                   3.0000                   1.0000                   1.1000                   2000.0                   1000.0                   45.000                   246.56                   280.08                   349.76                   370.05                   382.77                   385.81                   234.91                   266.81                   332.97                   352.15                   364.15                   367.08                   172.92                   194.09                   236.87                   249.06                   256.81                   258.92                   79.340                   85.337                   96.580                   99.617                   101.62                   102.27                   40.999                   42.187                   44.362                   44.863                   45.070                   45.185                   30.369                   30.526                   30.629                   30.670                   30.740                   30.779                   27.670                   27.618                   27.289                   27.183                   27.166                   27.180                   23.343                   23.283                   23.094                   23.048                   23.028                   23.035                   21.480                   21.521                   21.590                   21.611                   21.627                   21.633                   20.849                   20.895                   20.978                   21.000                   21.014                   21.019
12.000                   3.0000                   1.0000                   1.1000                   2000.0                   1000.0                   50.000                   276.97                   311.86                   384.85                   406.20                   419.44                   422.54                   263.80                   296.96                   366.07                   386.17                   398.65                   401.64                   193.94                   215.85                   260.29                   272.95                   281.00                   283.16                   88.153                   94.347                   106.07                   109.25                   111.32                   111.99                   43.184                   44.422                   46.708                   47.273                   47.568                   47.700                   30.904                   31.102                   31.355                   31.439                   31.526                   31.566                   27.700                   27.677                   27.483                   27.424                   27.424                   27.439                   23.377                   23.337                   23.219                   23.194                   23.186                   23.193                   21.596                   21.637                   21.713                   21.736                   21.753                   21.759                   20.980                   21.026                   21.109                   21.131                   21.145                   21.149
12.000                   3.0000                   1.0000                   1.1000                   2000.0                   1000.0                   55.000                   307.37                   343.65                   419.94                   442.35                   456.12                   459.28                   292.68                   327.11                   399.17                   420.19                   433.16                   436.19                   214.95                   237.60                   283.70                   296.84                   305.19                   307.39                   96.966                   103.36                   115.57                   118.88                   121.02                   121.71                   45.370                   46.657                   49.055                   49.683                   50.066                   50.214                   31.439                   31.677                   32.081                   32.208                   32.311                   32.354                   27.730                   27.735                   27.677                   27.665                   27.683                   27.699                   23.411                   23.392                   23.344                   23.340                   23.343                   23.350                   21.711                   21.754                   21.836                   21.861                   21.878                   21.884                   21.112                   21.157                   21.240                   21.262                   21.275                   21.280
12.000                   3.0000                   1.0000                   1.1000                   2000.0                   1000.0                   60.000                   337.78                   375.44                   455.04                   478.51                   492.80                   496.02                   321.57                   357.25                   432.27                   454.22                   467.66                   470.75                   235.96                   259.35                   307.11                   320.73                   329.38                   331.62                   105.78                   112.37                   125.06                   128.51                   130.72                   131.44                   47.555                   48.892                   51.401                   52.093                   52.563                   52.728                   31.974                   32.253                   32.807                   32.977                   33.097                   33.141                   27.759                   27.793                   27.871                   27.906                   27.942                   27.959                   23.445                   23.447                   23.470                   23.486                   23.500                   23.508                   21.826                   21.870                   21.960                   21.986                   22.003                   22.010                   21.244                   21.288                   21.371                   21.393                   21.406                   21.411
12.000                   3.0000                   1.0000                   1.1000                   2000.0                   1000.0                   65.000                   367.78                   406.86                   489.88                   514.47                   529.30                   532.58                   350.14                   387.12                   465.24                   488.16                   502.10                   505.24                   257.04                   281.20                   330.73                   344.87                   353.84                   356.12                   114.85                   121.64                   134.81                   138.39                   140.68                   141.42                   49.909                   51.301                   53.944                   54.681                   55.212                   55.389                   32.550                   32.863                   33.531                   33.731                   33.864                   33.910                   27.810                   27.868                   28.045                   28.113                   28.162                   28.179                   23.493                   23.511                   23.584                   23.614                   23.636                   23.644                   21.940                   21.986                   22.081                   22.108                   22.126                   22.132                   21.374                   21.418                   21.500                   21.522                   21.535                   21.540
12.000                   3.0000                   1.0000                   1.1000                   2000.0                   1000.0                   70.000                   397.13                   437.70                   524.31                   550.12                   565.53                   568.86                   378.22                   416.57                   498.00                   521.98                   536.44                   539.64                   278.21                   303.23                   354.68                   369.41                   378.71                   381.04                   124.33                   131.34                   144.97                   148.68                   151.06                   151.81                   52.532                   53.985                   56.799                   57.553                   58.100                   58.283                   33.190                   33.528                   34.249                   34.463                   34.601                   34.648                   27.895                   27.968                   28.186                   28.266                   28.319                   28.336                   23.562                   23.591                   23.682                   23.714                   23.737                   23.744                   22.054                   22.101                   22.199                   22.227                   22.245                   22.251                   21.501                   21.545                   21.627                   21.648                   21.662                   21.667
12.000                   3.0000                   1.0000                   1.1000                   2000.0                   1000.0                   75.000                   426.49                   468.55                   558.75                   585.78                   601.76                   605.14                   406.30                   446.01                   530.76                   555.80                   570.78                   574.03                   299.39                   325.25                   378.64                   393.94                   403.59                   405.96                   133.81                   141.03                   155.12                   158.97                   161.43                   162.21                   55.154                   56.669                   59.654                   60.425                   60.989                   61.177                   33.831                   34.192                   34.968                   35.194                   35.338                   35.386                   27.980                   28.068                   28.328                   28.419                   28.476                   28.494                   23.631                   23.670                   23.779                   23.813                   23.837                   23.845                   22.167                   22.216                   22.316                   22.345                   22.363                   22.369                   21.628                   21.672                   21.754                   21.775                   21.789                   21.793