% Model:              batchmodel_COIL_N_12_COIL_kr_3_COIL_kh_3_COIL_kturn_1.7_FUNZ_freq_6000_FUNZ_I_eff_2500.mph
% Version:            COMSOL 5.6.0.280
% Date:               Feb 2 2022, 04:54
% Table:              Tabella 1 - GRIGLIA_T
% COIL_N                 COIL_kr                  COIL_kh                  COIL_kturn               FUNZ_freq                FUNZ_I_eff               Time (s)                 Temperatura (degC), Punto: (0, 0)Temperatura (degC), Punto: (15, 0)Temperatura (degC), Punto: (27.483, 0)Temperatura (degC), Punto: (28.742, 0)Temperatura (degC), Punto: (29.497, 0)Temperatura (degC), Punto: (29.748, 0)Temperatura (degC), Punto: (0, 62.5)Temperatura (degC), Punto: (15, 62.5)Temperatura (degC), Punto: (27.483, 62.5)Temperatura (degC), Punto: (28.742, 62.5)Temperatura (degC), Punto: (29.497, 62.5)Temperatura (degC), Punto: (29.748, 62.5)Temperatura (degC), Punto: (0, 125)Temperatura (degC), Punto: (15, 125)Temperatura (degC), Punto: (27.483, 125)Temperatura (degC), Punto: (28.742, 125)Temperatura (degC), Punto: (29.497, 125)Temperatura (degC), Punto: (29.748, 125)Temperatura (degC), Punto: (0, 187.5)Temperatura (degC), Punto: (15, 187.5)Temperatura (degC), Punto: (27.483, 187.5)Temperatura (degC), Punto: (28.742, 187.5)Temperatura (degC), Punto: (29.497, 187.5)Temperatura (degC), Punto: (29.748, 187.5)Temperatura (degC), Punto: (0, 250)Temperatura (degC), Punto: (15, 250)Temperatura (degC), Punto: (27.483, 250)Temperatura (degC), Punto: (28.742, 250)Temperatura (degC), Punto: (29.497, 250)Temperatura (degC), Punto: (29.748, 250)Temperatura (degC), Punto: (0, 312.5)Temperatura (degC), Punto: (15, 312.5)Temperatura (degC), Punto: (27.483, 312.5)Temperatura (degC), Punto: (28.742, 312.5)Temperatura (degC), Punto: (29.497, 312.5)Temperatura (degC), Punto: (29.748, 312.5)Temperatura (degC), Punto: (0, 375)Temperatura (degC), Punto: (15, 375)Temperatura (degC), Punto: (27.483, 375)Temperatura (degC), Punto: (28.742, 375)Temperatura (degC), Punto: (29.497, 375)Temperatura (degC), Punto: (29.748, 375)Temperatura (degC), Punto: (0, 437.5)Temperatura (degC), Punto: (15, 437.5)Temperatura (degC), Punto: (27.483, 437.5)Temperatura (degC), Punto: (28.742, 437.5)Temperatura (degC), Punto: (29.497, 437.5)Temperatura (degC), Punto: (29.748, 437.5)Temperatura (degC), Punto: (0, 468.75)Temperatura (degC), Punto: (15, 468.75)Temperatura (degC), Punto: (27.483, 468.75)Temperatura (degC), Punto: (28.742, 468.75)Temperatura (degC), Punto: (29.497, 468.75)Temperatura (degC), Punto: (29.748, 468.75)Temperatura (degC), Punto: (0, 492.19)Temperatura (degC), Punto: (15, 492.19)Temperatura (degC), Punto: (27.483, 492.19)Temperatura (degC), Punto: (28.742, 492.19)Temperatura (degC), Punto: (29.497, 492.19)Temperatura (degC), Punto: (29.748, 492.19)
12.000                   3.0000                   3.0000                   1.7000                   6000.0                   2500.0                   0.0000                   20.000                   20.000                   20.000                   20.000                   20.012                   20.073                   20.000                   20.000                   20.000                   20.000                   20.014                   20.076                   20.000                   20.000                   20.000                   20.000                   20.013                   20.074                   20.000                   20.000                   20.000                   20.000                   20.013                   20.074                   20.000                   20.000                   20.000                   20.000                   20.014                   20.076                   20.000                   20.000                   20.000                   20.000                   20.012                   20.073                   20.000                   20.000                   20.000                   20.000                   20.013                   20.076                   20.000                   20.000                   20.000                   20.000                   20.014                   20.076                   20.000                   20.000                   20.000                   20.000                   20.014                   20.078                   20.000                   20.000                   20.000                   20.000                   20.012                   20.072
12.000                   3.0000                   3.0000                   1.7000                   6000.0                   2500.0                   5.0000                   22.943                   32.218                   80.133                   88.528                   93.408                   94.839                   23.027                   32.648                   82.921                   92.132                   97.518                   99.217                   23.007                   32.624                   82.748                   92.041                   97.269                   98.887                   22.939                   32.303                   82.056                   91.673                   97.609                   99.430                   22.964                   32.401                   82.233                   91.501                   96.824                   98.417                   22.909                   32.130                   79.732                   88.471                   93.833                   95.373                   23.068                   32.864                   83.964                   93.400                   99.187                   101.06                   23.011                   32.625                   82.918                   91.983                   97.064                   98.705                   23.029                   32.489                   82.763                   92.419                   98.567                   100.46                   26.334                   37.297                   84.393                   92.805                   97.578                   99.183
12.000                   3.0000                   3.0000                   1.7000                   6000.0                   2500.0                   10.000                   39.335                   60.586                   125.85                   135.24                   139.97                   141.33                   39.887                   62.144                   132.60                   142.66                   147.32                   148.65                   39.670                   61.751                   132.31                   143.58                   149.90                   151.60                   39.600                   61.789                   132.83                   143.36                   148.81                   150.23                   39.676                   61.700                   130.87                   141.39                   146.75                   148.16                   39.290                   60.539                   124.21                   133.04                   138.09                   139.49                   39.984                   62.358                   133.10                   143.65                   148.28                   149.64                   39.693                   61.853                   132.22                   142.14                   147.00                   148.38                   40.168                   62.130                   130.37                   140.74                   146.84                   148.46                   49.424                   72.986                   138.76                   148.96                   154.20                   155.68
12.000                   3.0000                   3.0000                   1.7000                   6000.0                   2500.0                   15.000                   66.398                   93.046                   161.41                   170.92                   176.72                   178.39                   67.439                   95.063                   166.09                   175.90                   181.96                   183.65                   67.020                   94.503                   164.77                   174.22                   179.83                   181.46                   67.191                   94.909                   165.31                   174.80                   180.60                   182.25                   67.198                   94.622                   164.50                   174.06                   180.00                   181.68                   66.468                   93.220                   161.44                   170.87                   176.70                   178.40                   67.495                   95.115                   165.35                   174.93                   180.86                   182.53                   66.980                   94.473                   164.95                   174.57                   180.42                   182.09                   68.457                   95.794                   165.65                   175.22                   181.08                   182.77                   78.803                   106.62                   172.13                   180.64                   185.79                   187.27
12.000                   3.0000                   3.0000                   1.7000                   6000.0                   2500.0                   20.000                   97.063                   125.53                   196.61                   206.59                   212.83                   214.60                   98.260                   127.28                   199.72                   209.98                   216.43                   218.25                   97.760                   126.59                   197.91                   207.91                   214.17                   215.95                   98.162                   127.11                   198.09                   208.03                   214.27                   216.04                   97.953                   126.66                   198.08                   208.26                   214.68                   216.50                   97.287                   125.85                   197.01                   207.00                   213.25                   215.02                   98.147                   126.96                   198.34                   208.46                   214.86                   216.66                   97.352                   125.94                   197.13                   207.25                   213.63                   215.43                   99.921                   128.48                   199.97                   210.19                   216.62                   218.44                   109.18                   137.86                   203.53                   212.17                   217.55                   219.10
12.000                   3.0000                   3.0000                   1.7000                   6000.0                   2500.0                   25.000                   128.71                   158.43                   233.64                   244.35                   251.03                   252.88                   130.03                   160.38                   237.82                   248.98                   255.94                   257.85                   129.50                   159.57                   235.99                   246.98                   253.85                   255.74                   129.95                   160.03                   236.23                   247.19                   254.04                   255.93                   129.71                   159.90                   237.32                   248.52                   255.52                   257.45                   129.08                   158.92                   234.47                   245.29                   252.06                   253.92                   129.76                   159.91                   236.86                   247.95                   254.87                   256.78                   128.78                   158.74                   235.48                   246.58                   253.51                   255.42                   131.97                   161.93                   239.21                   250.47                   257.52                   259.45                   138.92                   168.03                   235.90                   244.98                   250.62                   252.21
12.000                   3.0000                   3.0000                   1.7000                   6000.0                   2500.0                   30.000                   160.74                   191.87                   271.45                   282.87                   289.98                   291.90                   162.25                   194.10                   276.35                   288.27                   295.67                   297.65                   161.66                   193.17                   274.41                   286.21                   293.55                   295.53                   162.10                   193.54                   274.64                   286.44                   293.79                   295.76                   161.95                   193.78                   276.51                   288.53                   296.00                   298.01                   161.24                   192.50                   272.55                   284.13                   291.37                   293.31                   161.87                   193.55                   275.51                   287.37                   294.75                   296.73                   160.81                   192.36                   274.25                   286.16                   293.55                   295.54                   164.19                   195.65                   277.96                   290.02                   297.54                   299.55                   168.88                   198.62                   268.67                   278.12                   283.97                   285.59
12.000                   3.0000                   3.0000                   1.7000                   6000.0                   2500.0                   35.000                   193.42                   226.15                   310.61                   322.82                   330.39                   332.39                   195.09                   228.55                   315.62                   328.29                   336.12                   338.16                   194.43                   227.52                   313.61                   326.18                   333.99                   336.05                   194.76                   227.72                   313.50                   326.05                   333.87                   335.92                   194.82                   228.31                   315.95                   328.74                   336.67                   338.75                   193.95                   226.77                   311.62                   323.99                   331.72                   333.75                   194.66                   227.97                   314.72                   327.34                   335.18                   337.23                   193.59                   226.82                   313.77                   326.48                   334.35                   336.42                   196.42                   229.33                   315.89                   328.60                   336.51                   338.58                   199.07                   229.57                   301.84                   311.63                   317.67                   319.32
12.000                   3.0000                   3.0000                   1.7000                   6000.0                   2500.0                   40.000                   226.10                   260.42                   349.77                   362.76                   370.81                   372.88                   227.92                   262.99                   354.89                   368.30                   376.56                   378.67                   227.21                   261.87                   352.80                   366.16                   374.44                   376.57                   227.42                   261.89                   352.36                   365.66                   373.95                   376.08                   227.69                   262.84                   355.39                   368.95                   377.34                   379.49                   226.66                   261.05                   350.69                   363.84                   372.07                   374.18                   227.46                   262.40                   353.93                   367.30                   375.61                   377.74                   226.37                   261.28                   353.28                   366.80                   375.15                   377.30                   228.65                   263.02                   353.82                   367.17                   375.48                   377.62                   229.25                   260.53                   335.01                   345.13                   351.38                   353.04
12.000                   3.0000                   3.0000                   1.7000                   6000.0                   2500.0                   45.000                   258.82                   294.75                   388.95                   402.71                   411.20                   413.34                   260.78                   297.45                   394.02                   408.15                   416.82                   418.98                   259.99                   296.22                   391.77                   405.85                   414.56                   416.75                   260.07                   296.06                   391.00                   405.00                   413.72                   415.91                   260.56                   297.31                   394.43                   408.70                   417.53                   419.73                   259.43                   295.41                   389.89                   403.82                   412.52                   414.71                   260.29                   296.82                   392.87                   406.94                   415.69                   417.88                   259.16                   295.68                   392.39                   406.64                   415.43                   417.64                   260.48                   296.19                   390.73                   404.64                   413.28                   415.47                   259.24                   291.31                   367.92                   378.35                   384.77                   386.46
12.000                   3.0000                   3.0000                   1.7000                   6000.0                   2500.0                   50.000                   291.57                   329.11                   428.13                   442.65                   451.59                   453.78                   293.65                   331.91                   433.07                   447.92                   456.98                   459.19                   292.77                   330.56                   430.61                   445.38                   454.50                   456.75                   292.70                   330.23                   429.53                   444.20                   453.32                   455.57                   293.44                   331.75                   433.25                   448.22                   457.45                   459.71                   292.22                   329.82                   429.16                   443.85                   453.02                   455.28                   293.14                   331.24                   431.66                   446.41                   455.59                   457.83                   291.96                   330.06                   431.29                   446.24                   455.45                   457.71                   292.11                   329.09                   427.11                   441.54                   450.48                   452.70                   289.12                   322.00                   400.70                   411.41                   418.01                   419.71
12.000                   3.0000                   3.0000                   1.7000                   6000.0                   2500.0                   55.000                   324.07                   363.23                   467.15                   482.46                   491.86                   494.11                   326.27                   366.13                   471.99                   487.59                   497.07                   499.33                   325.27                   364.63                   469.26                   484.76                   494.30                   496.61                   325.06                   364.13                   467.88                   483.25                   492.79                   495.09                   326.03                   365.91                   471.88                   487.57                   497.24                   499.55                   324.77                   364.01                   468.28                   483.78                   493.43                   495.76                   325.73                   365.40                   470.29                   485.77                   495.40                   497.68                   324.42                   364.10                   469.84                   485.51                   495.14                   497.46                   323.33                   361.56                   463.05                   478.01                   487.26                   489.51                   318.65                   352.32                   433.08                   444.08                   450.84                   452.55
12.000                   3.0000                   3.0000                   1.7000                   6000.0                   2500.0                   60.000                   355.56                   396.38                   505.47                   521.71                   531.64                   533.96                   357.83                   399.35                   510.32                   526.87                   536.86                   539.18                   356.65                   397.61                   507.10                   523.47                   533.50                   535.87                   356.28                   396.94                   505.47                   521.70                   531.73                   534.09                   357.46                   398.91                   509.68                   526.25                   536.43                   538.80                   356.33                   397.28                   506.81                   523.27                   533.48                   535.88                   357.22                   398.51                   508.28                   524.65                   534.79                   537.12                   355.52                   396.70                   506.96                   523.44                   533.53                   535.90                   352.86                   392.25                   497.19                   512.74                   522.31                   524.59                   346.71                   381.12                   463.84                   475.12                   482.02                   483.74
12.000                   3.0000                   3.0000                   1.7000                   6000.0                   2500.0                   65.000                   387.04                   429.53                   543.79                   560.95                   571.43                   573.81                   389.39                   432.57                   548.66                   566.14                   576.66                   579.03                   388.02                   430.58                   544.94                   562.18                   572.71                   575.13                   387.51                   429.74                   543.07                   560.14                   570.67                   573.09                   388.89                   431.92                   547.48                   564.93                   575.62                   578.05                   387.90                   430.54                   545.35                   562.76                   573.53                   576.01                   388.71                   431.61                   546.27                   563.53                   574.18                   576.57                   386.61                   429.30                   544.08                   561.36                   571.93                   574.35                   382.38                   422.95                   531.32                   547.47                   557.36                   559.68                   374.77                   409.92                   494.59                   506.15                   513.20                   514.93
12.000                   3.0000                   3.0000                   1.7000                   6000.0                   2500.0                   70.000                   418.52                   462.69                   582.11                   600.20                   611.21                   613.66                   420.95                   465.78                   587.00                   605.42                   616.45                   618.89                   419.40                   463.56                   582.77                   600.88                   611.91                   614.40                   418.73                   462.55                   580.67                   598.59                   609.61                   612.09                   420.31                   464.93                   585.28                   603.61                   614.82                   617.31                   419.46                   463.81                   583.89                   602.24                   613.58                   616.13                   420.20                   464.72                   584.27                   602.40                   613.57                   616.02                   417.71                   461.91                   581.21                   599.29                   610.32                   612.80                   411.91                   453.64                   565.46                   582.19                   592.41                   594.76                   402.84                   438.72                   525.34                   537.18                   544.38                   546.13
12.000                   3.0000                   3.0000                   1.7000                   6000.0                   2500.0                   75.000                   450.00                   495.84                   620.43                   639.45                   650.99                   653.51                   452.51                   499.00                   625.34                   644.70                   656.24                   658.74                   450.78                   496.53                   620.61                   639.59                   651.11                   653.66                   449.96                   495.36                   618.26                   637.04                   648.55                   651.08                   451.74                   497.93                   623.08                   642.29                   654.01                   656.56                   451.02                   497.08                   622.42                   641.73                   653.63                   656.26                   451.70                   497.82                   622.26                   641.28                   652.95                   655.46                   448.80                   494.51                   618.33                   637.21                   648.71                   651.25                   441.43                   484.33                   599.59                   616.92                   627.46                   629.84                   430.90                   467.52                   556.10                   568.21                   575.56                   577.32