% Model:              batchmodel_COIL_N_12_COIL_kr_2.25_COIL_kh_3_COIL_kturn_1.1_FUNZ_freq_10000_FUNZ_I_eff_2500.mph
% Version:            COMSOL 5.6.0.280
% Date:               Feb 1 2022, 22:01
% Table:              Tabella 1 - GRIGLIA_T
% COIL_N                 COIL_kr                  COIL_kh                  COIL_kturn               FUNZ_freq                FUNZ_I_eff               Time (s)                 Temperatura (degC), Punto: (0, 0)Temperatura (degC), Punto: (15, 0)Temperatura (degC), Punto: (28.051, 0)Temperatura (degC), Punto: (29.025, 0)Temperatura (degC), Punto: (29.61, 0)Temperatura (degC), Punto: (29.805, 0)Temperatura (degC), Punto: (0, 62.5)Temperatura (degC), Punto: (15, 62.5)Temperatura (degC), Punto: (28.051, 62.5)Temperatura (degC), Punto: (29.025, 62.5)Temperatura (degC), Punto: (29.61, 62.5)Temperatura (degC), Punto: (29.805, 62.5)Temperatura (degC), Punto: (0, 125)Temperatura (degC), Punto: (15, 125)Temperatura (degC), Punto: (28.051, 125)Temperatura (degC), Punto: (29.025, 125)Temperatura (degC), Punto: (29.61, 125)Temperatura (degC), Punto: (29.805, 125)Temperatura (degC), Punto: (0, 187.5)Temperatura (degC), Punto: (15, 187.5)Temperatura (degC), Punto: (28.051, 187.5)Temperatura (degC), Punto: (29.025, 187.5)Temperatura (degC), Punto: (29.61, 187.5)Temperatura (degC), Punto: (29.805, 187.5)Temperatura (degC), Punto: (0, 250)Temperatura (degC), Punto: (15, 250)Temperatura (degC), Punto: (28.051, 250)Temperatura (degC), Punto: (29.025, 250)Temperatura (degC), Punto: (29.61, 250)Temperatura (degC), Punto: (29.805, 250)Temperatura (degC), Punto: (0, 312.5)Temperatura (degC), Punto: (15, 312.5)Temperatura (degC), Punto: (28.051, 312.5)Temperatura (degC), Punto: (29.025, 312.5)Temperatura (degC), Punto: (29.61, 312.5)Temperatura (degC), Punto: (29.805, 312.5)Temperatura (degC), Punto: (0, 375)Temperatura (degC), Punto: (15, 375)Temperatura (degC), Punto: (28.051, 375)Temperatura (degC), Punto: (29.025, 375)Temperatura (degC), Punto: (29.61, 375)Temperatura (degC), Punto: (29.805, 375)Temperatura (degC), Punto: (0, 437.5)Temperatura (degC), Punto: (15, 437.5)Temperatura (degC), Punto: (28.051, 437.5)Temperatura (degC), Punto: (29.025, 437.5)Temperatura (degC), Punto: (29.61, 437.5)Temperatura (degC), Punto: (29.805, 437.5)Temperatura (degC), Punto: (0, 468.75)Temperatura (degC), Punto: (15, 468.75)Temperatura (degC), Punto: (28.051, 468.75)Temperatura (degC), Punto: (29.025, 468.75)Temperatura (degC), Punto: (29.61, 468.75)Temperatura (degC), Punto: (29.805, 468.75)Temperatura (degC), Punto: (0, 492.19)Temperatura (degC), Punto: (15, 492.19)Temperatura (degC), Punto: (28.051, 492.19)Temperatura (degC), Punto: (29.025, 492.19)Temperatura (degC), Punto: (29.61, 492.19)Temperatura (degC), Punto: (29.805, 492.19)
12.000                   2.2500                   3.0000                   1.1000                   10000                    2500.0                   0.0000                   20.000                   20.000                   20.000                   20.000                   20.071                   20.236                   20.000                   20.000                   20.000                   20.000                   20.071                   20.236                   20.000                   20.000                   20.000                   20.000                   20.071                   20.236                   20.000                   20.000                   20.000                   20.000                   20.071                   20.236                   20.000                   20.000                   20.000                   20.000                   20.071                   20.237                   20.000                   20.000                   20.000                   20.000                   20.071                   20.237                   20.000                   20.000                   20.000                   20.000                   20.058                   20.211                   20.000                   20.000                   20.000                   20.000                   20.003                   20.034                   20.000                   20.000                   20.000                   20.000                   20.001                   20.010                   20.000                   20.000                   20.000                   20.000                   20.000                   20.003
12.000                   2.2500                   3.0000                   1.1000                   10000                    2500.0                   5.0000                   26.059                   48.833                   195.37                   215.74                   227.71                   231.05                   26.008                   48.855                   196.43                   218.30                   231.12                   234.17                   25.993                   48.717                   194.24                   214.57                   226.00                   229.18                   26.014                   48.874                   195.47                   215.94                   227.84                   230.99                   26.031                   48.977                   197.72                   219.46                   232.49                   235.96                   26.091                   49.324                   200.61                   222.25                   234.52                   237.68                   25.206                   45.047                   170.89                   189.57                   200.27                   203.36                   21.124                   25.480                   53.697                   57.797                   59.578                   60.116                   20.517                   22.934                   45.183                   48.862                   50.469                   50.787                   20.363                   22.009                   32.988                   34.276                   34.774                   34.865
12.000                   2.2500                   3.0000                   1.1000                   10000                    2500.0                   10.000                   65.422                   122.34                   324.05                   348.15                   362.66                   366.44                   65.353                   122.17                   319.20                   342.11                   355.49                   358.99                   65.517                   122.84                   328.51                   354.46                   369.75                   373.38                   65.548                   122.90                   326.61                   350.39                   363.48                   366.99                   65.794                   123.66                   328.84                   353.84                   368.44                   371.95                   66.381                   125.22                   335.55                   360.18                   374.55                   378.19                   58.774                   108.09                   281.61                   302.52                   315.14                   318.34                   30.034                   42.503                   81.855                   86.203                   88.590                   89.301                   25.769                   33.953                   61.900                   64.544                   65.503                   65.668                   24.558                   31.116                   49.451                   50.357                   50.561                   50.617
12.000                   2.2500                   3.0000                   1.1000                   10000                    2500.0                   15.000                   134.69                   207.96                   448.71                   479.25                   496.66                   500.59                   134.39                   207.39                   449.18                   480.34                   498.87                   502.93                   135.17                   208.97                   452.74                   483.46                   501.37                   505.41                   135.10                   208.83                   452.73                   483.61                   502.02                   505.98                   135.63                   209.79                   455.23                   486.58                   504.95                   509.05                   137.08                   212.28                   460.26                   491.52                   509.53                   513.52                   117.26                   179.36                   372.90                   395.99                   409.60                   412.77                   47.319                   62.818                   101.37                   104.81                   106.71                   107.29                   35.669                   44.818                   68.382                   70.528                   71.559                   71.824                   32.700                   39.940                   55.061                   56.130                   56.623                   56.747
12.000                   2.2500                   3.0000                   1.1000                   10000                    2500.0                   20.000                   212.18                   296.25                   581.51                   619.82                   641.53                   646.14                   211.65                   295.45                   579.72                   617.81                   639.67                   644.26                   212.75                   297.04                   581.91                   620.07                   641.82                   646.40                   212.61                   296.91                   582.81                   620.63                   642.32                   646.86                   213.27                   297.88                   584.07                   622.14                   643.96                   648.62                   214.97                   300.30                   589.36                   627.95                   649.80                   654.35                   181.74                   251.21                   472.27                   499.84                   515.60                   519.06                   68.693                   85.783                   128.18                   132.17                   134.41                   135.07                   47.050                   56.546                   80.975                   83.260                   84.335                   84.618                   41.642                   48.815                   63.924                   64.938                   65.392                   65.506
12.000                   2.2500                   3.0000                   1.1000                   10000                    2500.0                   25.000                   289.78                   382.00                   696.66                   742.44                   768.26                   773.43                   289.13                   381.18                   695.53                   741.30                   767.07                   772.24                   290.30                   382.59                   697.71                   743.99                   770.08                   775.25                   290.13                   382.45                   697.34                   743.28                   769.09                   774.28                   290.83                   383.37                   699.25                   745.61                   771.61                   776.79                   292.31                   385.16                   701.21                   747.52                   773.58                   778.75                   246.88                   323.16                   573.07                   605.09                   623.59                   627.58                   91.347                   108.92                   151.45                   155.53                   158.05                   158.84                   58.059                   66.364                   83.463                   84.763                   85.544                   85.802                   49.678                   55.324                   64.759                   65.268                   65.558                   65.652
12.000                   2.2500                   3.0000                   1.1000                   10000                    2500.0                   30.000                   364.14                   461.09                   801.55                   855.07                   883.22                   888.51                   363.51                   460.42                   801.34                   855.17                   883.27                   888.56                   364.61                   461.68                   804.60                   859.34                   887.97                   893.27                   364.44                   461.48                   802.40                   856.16                   884.14                   889.43                   365.14                   462.37                   805.53                   859.95                   888.23                   893.51                   366.18                   463.53                   808.00                   862.89                   891.45                   896.73                   310.80                   392.72                   661.74                   696.89                   716.97                   721.23                   114.54                   132.43                   176.36                   180.70                   183.39                   184.22                   68.434                   75.618                   90.930                   92.248                   93.029                   93.288                   56.679                   60.994                   68.318                   68.798                   69.082                   69.176
12.000                   2.2500                   3.0000                   1.1000                   10000                    2500.0                   35.000                   432.99                   532.46                   905.24                   959.47                   985.69                   990.35                   432.43                   531.96                   905.07                   959.53                   985.65                   990.28                   433.43                   533.09                   908.85                   964.09                   990.49                   995.09                   433.26                   532.83                   905.63                   959.87                   985.84                   990.45                   433.95                   533.72                   908.65                   963.05                   989.07                   993.66                   434.53                   534.49                   913.72                   969.20                   995.48                   1000.0                   371.91                   457.07                   733.20                   771.33                   793.16                   797.64                   138.12                   156.46                   201.91                   206.41                   209.18                   210.03                   78.583                   85.169                   100.15                   101.51                   102.31                   102.57                   63.147                   66.714                   73.332                   73.821                   74.110                   74.205
12.000                   2.2500                   3.0000                   1.1000                   10000                    2500.0                   40.000                   496.99                   596.82                   967.58                   1009.0                   1027.2                   1030.2                   496.54                   596.58                   973.82                   1016.5                   1034.4                   1037.2                   497.44                   597.54                   972.51                   1014.1                   1031.8                   1034.7                   497.26                   597.31                   972.63                   1014.0                   1031.5                   1034.3                   497.94                   598.23                   989.21                   1033.7                   1050.6                   1053.0                   498.19                   599.25                   1034.2                   1081.4                   1094.6                   1095.9                   429.74                   516.30                   798.21                   839.96                   862.21                   866.48                   161.95                   180.74                   227.09                   231.61                   234.38                   235.22                   88.791                   95.073                   109.64                   110.97                   111.77                   112.04                   69.476                   72.614                   78.701                   79.164                   79.437                   79.527
12.000                   2.2500                   3.0000                   1.1000                   10000                    2500.0                   45.000                   554.99                   650.67                   968.26                   995.80                   1008.7                   1011.0                   554.69                   651.10                   984.82                   1012.9                   1025.0                   1027.0                   555.48                   651.69                   972.98                   999.43                   1011.5                   1013.5                   555.34                   652.00                   989.50                   1016.2                   1027.0                   1028.7                   556.06                   653.75                   1052.9                   1081.3                   1088.9                   1089.5                   556.24                   655.75                   1067.5                   1092.7                   1099.2                   1099.5                   482.56                   568.45                   852.94                   892.07                   912.53                   916.39                   185.80                   204.79                   251.37                   255.90                   258.68                   259.53                   99.297                   105.43                   119.76                   121.06                   121.85                   122.12                   75.952                   78.856                   84.584                   85.027                   85.292                   85.379
12.000                   2.2500                   3.0000                   1.1000                   10000                    2500.0                   50.000                   604.60                   693.07                   971.68                   992.77                   1003.0                   1004.8                   604.50                   694.25                   985.92                   1007.0                   1016.5                   1018.0                   605.16                   694.71                   983.94                   1004.4                   1013.7                   1015.2                   605.17                   695.97                   1012.5                   1034.4                   1042.3                   1043.2                   605.99                   698.97                   1073.0                   1092.9                   1097.6                   1097.7                   606.19                   700.74                   1073.8                   1093.7                   1098.6                   1098.7                   529.68                   612.65                   897.50                   933.83                   952.43                   955.87                   209.17                   228.24                   275.28                   279.89                   282.72                   283.57                   110.21                   116.29                   130.94                   132.28                   133.06                   133.32                   82.837                   85.629                   91.259                   91.701                   91.964                   92.050
12.000                   2.2500                   3.0000                   1.1000                   10000                    2500.0                   55.000                   646.38                   727.02                   982.23                   999.11                   1007.0                   1008.3                   646.45                   728.71                   992.54                   1009.2                   1016.5                   1017.7                   647.00                   729.27                   1001.6                   1019.0                   1026.0                   1027.0                   647.17                   731.47                   1034.9                   1053.6                   1059.4                   1059.9                   648.14                   735.63                   1079.6                   1095.2                   1098.6                   1098.4                   648.28                   736.86                   1080.4                   1096.3                   1099.8                   1099.7                   571.68                   650.90                   933.10                   965.99                   982.64                   985.67                   231.93                   251.09                   298.51                   303.18                   306.04                   306.90                   121.48                   127.58                   142.30                   143.66                   144.46                   144.72                   90.191                   92.951                   98.585                   99.027                   99.289                   99.375
12.000                   2.2500                   3.0000                   1.1000                   10000                    2500.0                   60.000                   680.24                   757.17                   998.21                   1012.1                   1018.0                   1018.8                   680.38                   759.01                   1006.3                   1020.1                   1025.6                   1026.3                   680.84                   759.94                   1020.2                   1035.3                   1040.6                   1041.2                   681.14                   763.01                   1050.2                   1065.7                   1069.9                   1070.1                   682.20                   768.27                   1080.8                   1093.4                   1096.0                   1095.7                   682.23                   768.88                   1081.7                   1094.6                   1097.2                   1096.9                   608.16                   683.64                   957.21                   985.87                   1000.2                   1002.8                   253.94                   273.15                   320.79                   325.48                   328.37                   329.22                   133.09                   139.21                   153.95                   155.32                   156.12                   156.38                   98.078                   100.84                   106.53                   106.97                   107.23                   107.32
12.000                   2.2500                   3.0000                   1.1000                   10000                    2500.0                   65.000                   704.50                   787.26                   1019.9                   1032.2                   1036.6                   1037.0                   704.57                   789.08                   1026.9                   1039.2                   1043.2                   1043.5                   704.92                   790.12                   1036.8                   1049.7                   1053.6                   1053.8                   705.24                   793.40                   1057.6                   1070.3                   1073.4                   1073.3                   706.19                   798.87                   1078.4                   1089.1                   1091.1                   1090.8                   706.15                   798.93                   1078.5                   1089.4                   1091.5                   1091.2                   637.99                   710.04                   970.13                   994.36                   1006.3                   1008.4                   274.81                   294.02                   341.82                   346.54                   349.43                   350.28                   145.07                   151.24                   166.38                   167.79                   168.58                   168.85                   106.60                   109.36                   115.00                   115.44                   115.69                   115.78
12.000                   2.2500                   3.0000                   1.1000                   10000                    2500.0                   70.000                   726.61                   817.45                   1039.5                   1050.2                   1053.2                   1053.2                   726.64                   819.17                   1045.1                   1055.6                   1058.4                   1058.4                   726.92                   820.17                   1051.2                   1062.0                   1064.6                   1064.5                   727.28                   823.36                   1064.1                   1074.3                   1076.5                   1076.2                   728.22                   828.61                   1077.0                   1086.0                   1087.5                   1087.1                   728.09                   828.24                   1076.6                   1085.7                   1087.2                   1086.9                   665.29                   735.16                   983.94                   1004.4                   1014.1                   1015.7                   295.15                   314.37                   362.29                   367.03                   369.93                   370.78                   157.10                   163.32                   178.66                   180.10                   180.88                   181.15                   115.35                   118.08                   123.66                   124.09                   124.34                   124.43
12.000                   2.2500                   3.0000                   1.1000                   10000                    2500.0                   75.000                   745.25                   847.79                   1055.7                   1064.6                   1066.5                   1066.3                   745.31                   849.29                   1059.2                   1067.9                   1069.7                   1069.4                   745.59                   850.04                   1062.1                   1070.8                   1072.5                   1072.2                   746.01                   852.62                   1069.3                   1077.6                   1079.0                   1078.6                   747.07                   856.95                   1077.3                   1084.8                   1085.8                   1085.4                   746.83                   856.35                   1076.7                   1084.3                   1085.4                   1084.9                   688.47                   758.20                   999.19                   1017.0                   1024.7                   1025.9                   314.64                   333.85                   381.85                   386.60                   389.52                   390.36                   169.24                   175.46                   190.71                   192.13                   192.92                   193.19                   124.44                   127.14                   132.62                   133.05                   133.30                   133.38