% Model:              batchmodel_COIL_N_12_COIL_kr_1.5_COIL_kh_1_COIL_kturn_1.7_FUNZ_freq_2000_FUNZ_I_eff_4000.mph
% Version:            COMSOL 5.6.0.280
% Date:               Feb 1 2022, 13:07
% Table:              Tabella 1 - GRIGLIA_T
% COIL_N                 COIL_kr                  COIL_kh                  COIL_kturn               FUNZ_freq                FUNZ_I_eff               Time (s)                 Temperatura (degC), Punto: (0, 0)Temperatura (degC), Punto: (15, 0)Temperatura (degC), Punto: (25.641, 0)Temperatura (degC), Punto: (27.821, 0)Temperatura (degC), Punto: (29.128, 0)Temperatura (degC), Punto: (29.564, 0)Temperatura (degC), Punto: (0, 62.5)Temperatura (degC), Punto: (15, 62.5)Temperatura (degC), Punto: (25.641, 62.5)Temperatura (degC), Punto: (27.821, 62.5)Temperatura (degC), Punto: (29.128, 62.5)Temperatura (degC), Punto: (29.564, 62.5)Temperatura (degC), Punto: (0, 125)Temperatura (degC), Punto: (15, 125)Temperatura (degC), Punto: (25.641, 125)Temperatura (degC), Punto: (27.821, 125)Temperatura (degC), Punto: (29.128, 125)Temperatura (degC), Punto: (29.564, 125)Temperatura (degC), Punto: (0, 187.5)Temperatura (degC), Punto: (15, 187.5)Temperatura (degC), Punto: (25.641, 187.5)Temperatura (degC), Punto: (27.821, 187.5)Temperatura (degC), Punto: (29.128, 187.5)Temperatura (degC), Punto: (29.564, 187.5)Temperatura (degC), Punto: (0, 250)Temperatura (degC), Punto: (15, 250)Temperatura (degC), Punto: (25.641, 250)Temperatura (degC), Punto: (27.821, 250)Temperatura (degC), Punto: (29.128, 250)Temperatura (degC), Punto: (29.564, 250)Temperatura (degC), Punto: (0, 312.5)Temperatura (degC), Punto: (15, 312.5)Temperatura (degC), Punto: (25.641, 312.5)Temperatura (degC), Punto: (27.821, 312.5)Temperatura (degC), Punto: (29.128, 312.5)Temperatura (degC), Punto: (29.564, 312.5)Temperatura (degC), Punto: (0, 375)Temperatura (degC), Punto: (15, 375)Temperatura (degC), Punto: (25.641, 375)Temperatura (degC), Punto: (27.821, 375)Temperatura (degC), Punto: (29.128, 375)Temperatura (degC), Punto: (29.564, 375)Temperatura (degC), Punto: (0, 437.5)Temperatura (degC), Punto: (15, 437.5)Temperatura (degC), Punto: (25.641, 437.5)Temperatura (degC), Punto: (27.821, 437.5)Temperatura (degC), Punto: (29.128, 437.5)Temperatura (degC), Punto: (29.564, 437.5)Temperatura (degC), Punto: (0, 468.75)Temperatura (degC), Punto: (15, 468.75)Temperatura (degC), Punto: (25.641, 468.75)Temperatura (degC), Punto: (27.821, 468.75)Temperatura (degC), Punto: (29.128, 468.75)Temperatura (degC), Punto: (29.564, 468.75)Temperatura (degC), Punto: (0, 492.19)Temperatura (degC), Punto: (15, 492.19)Temperatura (degC), Punto: (25.641, 492.19)Temperatura (degC), Punto: (27.821, 492.19)Temperatura (degC), Punto: (29.128, 492.19)Temperatura (degC), Punto: (29.564, 492.19)
12.000                   1.5000                   1.0000                   1.7000                   2000.0                   4000.0                   0.0000                   20.000                   20.000                   20.000                   20.002                   20.125                   20.224                   20.000                   20.000                   20.000                   20.002                   20.127                   20.227                   20.000                   20.000                   20.000                   20.002                   20.130                   20.232                   20.000                   20.000                   20.000                   20.001                   20.120                   20.218                   20.000                   20.000                   20.000                   20.000                   20.001                   20.012                   20.000                   20.000                   20.000                   20.000                   20.000                   20.000                   20.000                   20.000                   20.000                   20.000                   20.000                   20.000                   20.000                   20.000                   20.000                   20.000                   20.000                   20.000                   20.000                   20.000                   20.000                   20.000                   20.000                   20.000                   20.000                   20.000                   20.000                   20.000                   20.000                   20.000
12.000                   1.5000                   1.0000                   1.7000                   2000.0                   4000.0                   5.0000                   36.719                   97.086                   359.08                   474.85                   538.97                   551.56                   36.720                   97.054                   358.40                   473.54                   537.62                   550.27                   36.745                   97.297                   360.93                   477.49                   542.32                   555.02                   34.330                   87.821                   323.10                   427.03                   486.11                   497.89                   21.379                   26.262                   45.056                   51.140                   54.889                   56.047                   20.481                   22.323                   29.263                   31.174                   31.940                   32.128                   20.406                   21.962                   27.684                   29.006                   29.331                   29.353                   20.121                   20.593                   22.599                   23.318                   23.590                   23.609                   20.086                   20.438                   22.025                   22.658                   22.997                   23.031                   20.020                   20.079                   20.295                   20.373                   20.427                   20.446
12.000                   1.5000                   1.0000                   1.7000                   2000.0                   4000.0                   10.000                   130.46                   259.42                   650.53                   813.57                   902.62                   918.61                   130.36                   259.21                   650.11                   813.35                   903.45                   919.68                   130.31                   259.35                   652.74                   818.33                   908.68                   924.90                   115.74                   233.11                   592.27                   729.94                   800.52                   813.81                   31.277                   44.577                   78.386                   88.730                   95.133                   97.060                   23.513                   27.636                   37.593                   40.458                   41.733                   42.090                   22.781                   25.974                   33.002                   34.506                   34.972                   35.045                   20.873                   21.882                   24.348                   25.176                   25.574                   25.643                   20.618                   21.366                   23.241                   23.909                   24.367                   24.474                   20.191                   20.359                   20.664                   20.750                   20.813                   20.836
12.000                   1.5000                   1.0000                   1.7000                   2000.0                   4000.0                   15.000                   259.99                   415.48                   918.57                   1083.6                   1128.6                   1133.2                   259.80                   415.29                   922.41                   1087.6                   1132.2                   1136.8                   259.78                   416.41                   945.53                   1108.2                   1149.9                   1154.0                   230.45                   366.79                   716.35                   844.38                   905.71                   915.98                   52.351                   70.148                   103.20                   111.17                   115.94                   117.34                   28.065                   31.948                   37.827                   38.941                   39.549                   39.737                   25.781                   28.228                   31.270                   31.675                   31.852                   31.899                   21.937                   22.731                   23.741                   23.880                   23.941                   23.958                   21.312                   21.878                   22.593                   22.688                   22.729                   22.740                   20.529                   20.706                   20.937                   20.976                   20.996                   21.002
12.000                   1.5000                   1.0000                   1.7000                   2000.0                   4000.0                   20.000                   381.52                   548.88                   1086.4                   1172.1                   1189.1                   1189.5                   381.28                   548.75                   1089.1                   1174.6                   1191.5                   1191.9                   381.56                   551.16                   1106.1                   1187.9                   1203.6                   1203.9                   332.36                   463.06                   762.54                   862.21                   908.01                   915.62                   77.223                   94.195                   122.44                   128.96                   132.88                   134.06                   31.784                   34.582                   38.605                   39.426                   39.903                   40.058                   27.539                   28.922                   30.490                   30.721                   30.837                   30.872                   22.687                   23.153                   23.689                   23.770                   23.813                   23.825                   21.739                   22.057                   22.418                   22.472                   22.500                   22.508                   20.858                   20.993                   21.163                   21.194                   21.211                   21.216
12.000                   1.5000                   1.0000                   1.7000                   2000.0                   4000.0                   25.000                   488.58                   660.29                   1154.6                   1197.0                   1203.0                   1202.0                   488.30                   660.11                   1155.8                   1198.2                   1204.3                   1203.2                   488.94                   662.99                   1163.3                   1204.7                   1210.4                   1209.3                   416.59                   534.94                   793.39                   875.69                   913.66                   919.93                   101.41                   116.46                   141.43                   147.36                   150.97                   152.07                   34.767                   36.834                   40.010                   40.727                   41.161                   41.305                   28.487                   29.267                   30.228                   30.401                   30.498                   30.529                   23.189                   23.462                   23.804                   23.867                   23.903                   23.915                   21.989                   22.169                   22.393                   22.434                   22.457                   22.465                   21.135                   21.232                   21.364                   21.391                   21.407                   21.412
12.000                   1.5000                   1.0000                   1.7000                   2000.0                   4000.0                   30.000                   580.03                   755.40                   1185.0                   1209.0                   1210.2                   1208.5                   579.74                   755.15                   1185.7                   1209.7                   1211.0                   1209.3                   580.65                   758.46                   1189.1                   1212.7                   1213.9                   1212.2                   484.35                   591.05                   825.23                   898.06                   931.48                   936.89                   123.88                   137.50                   160.82                   166.54                   170.09                   171.16                   37.403                   39.104                   41.924                   42.608                   43.032                   43.174                   29.031                   29.537                   30.248                   30.400                   30.490                   30.520                   23.539                   23.720                   23.979                   24.035                   24.069                   24.080                   22.154                   22.271                   22.439                   22.475                   22.497                   22.504                   21.362                   21.436                   21.547                   21.572                   21.587                   21.593
12.000                   1.5000                   1.0000                   1.7000                   2000.0                   4000.0                   35.000                   650.88                   856.48                   1201.2                   1216.2                   1215.2                   1213.2                   650.63                   856.25                   1201.7                   1216.8                   1215.8                   1213.8                   651.61                   859.38                   1203.5                   1218.5                   1217.6                   1215.5                   538.97                   638.01                   868.77                   934.96                   964.17                   968.71                   144.64                   157.51                   180.11                   185.79                   189.33                   190.40                   40.077                   41.630                   44.330                   45.009                   45.434                   45.577                   29.430                   29.827                   30.445                   30.589                   30.678                   30.707                   23.802                   23.945                   24.171                   24.224                   24.257                   24.268                   22.291                   22.383                   22.529                   22.564                   22.585                   22.592                   21.550                   21.613                   21.715                   21.739                   21.754                   21.759
12.000                   1.5000                   1.0000                   1.7000                   2000.0                   4000.0                   40.000                   706.97                   952.17                   1215.0                   1224.3                   1221.9                   1219.6                   706.74                   952.00                   1215.4                   1224.8                   1222.4                   1220.1                   707.83                   954.61                   1216.6                   1226.1                   1223.7                   1221.4                   587.06                   682.38                   925.65                   985.90                   1009.4                   1012.5                   164.50                   176.88                   199.09                   204.77                   208.33                   209.41                   42.903                   44.382                   47.036                   47.717                   48.147                   48.292                   29.811                   30.150                   30.721                   30.862                   30.950                   30.980                   24.035                   24.157                   24.364                   24.416                   24.449                   24.460                   22.425                   22.503                   22.638                   22.671                   22.693                   22.700                   21.723                   21.780                   21.876                   21.900                   21.914                   21.919
12.000                   1.5000                   1.0000                   1.7000                   2000.0                   4000.0                   45.000                   773.19                   1035.7                   1229.3                   1235.2                   1231.9                   1229.4                   772.92                   1035.5                   1229.7                   1235.7                   1232.4                   1229.9                   774.68                   1037.5                   1230.8                   1236.9                   1233.6                   1231.2                   629.91                   727.13                   992.33                   1044.2                   1060.5                   1062.0                   183.54                   195.64                   217.69                   223.40                   226.99                   228.06                   45.921                   47.371                   50.023                   50.713                   51.149                   51.296                   30.200                   30.510                   31.060                   31.201                   31.290                   31.320                   24.247                   24.358                   24.557                   24.608                   24.641                   24.652                   22.560                   22.631                   22.760                   22.793                   22.814                   22.821                   21.886                   21.939                   22.032                   22.055                   22.070                   22.075
12.000                   1.5000                   1.0000                   1.7000                   2000.0                   4000.0                   50.000                   869.16                   1103.7                   1246.7                   1250.5                   1246.5                   1243.9                   868.77                   1103.6                   1247.1                   1250.9                   1247.0                   1244.4                   871.73                   1105.1                   1248.3                   1252.3                   1248.4                   1245.9                   668.66                   776.56                   1060.6                   1099.9                   1109.0                   1109.0                   201.86                   213.80                   235.85                   241.61                   245.24                   246.32                   49.153                   50.600                   53.277                   53.978                   54.422                   54.572                   30.614                   30.911                   31.455                   31.596                   31.686                   31.717                   24.447                   24.553                   24.748                   24.799                   24.832                   24.843                   22.698                   22.766                   22.892                   22.925                   22.946                   22.953                   22.041                   22.092                   22.184                   22.207                   22.221                   22.226
12.000                   1.5000                   1.0000                   1.7000                   2000.0                   4000.0                   55.000                   982.42                   1156.8                   1269.6                   1271.9                   1267.4                   1264.7                   982.06                   1156.7                   1269.9                   1272.4                   1267.9                   1265.2                   985.00                   1158.0                   1271.4                   1274.0                   1269.6                   1266.9                   704.29                   838.36                   1116.5                   1143.4                   1147.7                   1146.8                   219.49                   231.37                   253.49                   259.30                   262.96                   264.04                   52.619                   54.078                   56.794                   57.508                   57.960                   58.113                   31.062                   31.356                   31.901                   32.045                   32.136                   32.167                   24.641                   24.744                   24.938                   24.989                   25.022                   25.033                   22.840                   22.907                   23.032                   23.065                   23.086                   23.093                   22.193                   22.243                   22.333                   22.356                   22.371                   22.376
12.000                   1.5000                   1.0000                   1.7000                   2000.0                   4000.0                   60.000                   1070.2                   1204.6                   1299.8                   1300.7                   1295.5                   1292.6                   1070.0                   1204.6                   1300.2                   1301.1                   1296.0                   1293.1                   1072.1                   1205.8                   1301.7                   1302.9                   1297.7                   1294.9                   741.62                   908.23                   1156.2                   1175.5                   1177.0                   1175.6                   236.39                   248.23                   270.35                   276.17                   279.85                   280.92                   56.348                   57.824                   60.576                   61.299                   61.757                   61.912                   31.559                   31.853                   32.403                   32.548                   32.640                   32.671                   24.830                   24.933                   25.126                   25.178                   25.211                   25.222                   22.987                   23.053                   23.177                   23.211                   23.232                   23.239                   22.342                   22.392                   22.482                   22.505                   22.519                   22.524
12.000                   1.5000                   1.0000                   1.7000                   2000.0                   4000.0                   65.000                   1140.7                   1249.4                   1332.1                   1331.5                   1325.6                   1322.5                   1140.6                   1249.3                   1332.5                   1332.0                   1326.1                   1323.0                   1142.1                   1250.4                   1333.9                   1333.6                   1327.8                   1324.7                   794.35                   976.98                   1188.2                   1202.1                   1201.7                   1199.9                   252.70                   264.48                   286.53                   292.34                   296.00                   297.07                   60.271                   61.763                   64.545                   65.276                   65.739                   65.895                   32.098                   32.393                   32.947                   33.094                   33.186                   33.218                   25.020                   25.122                   25.316                   25.368                   25.401                   25.412                   23.136                   23.202                   23.326                   23.360                   23.381                   23.388                   22.491                   22.540                   22.629                   22.653                   22.667                   22.672
12.000                   1.5000                   1.0000                   1.7000                   2000.0                   4000.0                   70.000                   1195.1                   1286.9                   1357.6                   1355.8                   1349.4                   1346.1                   1194.9                   1286.9                   1357.9                   1356.3                   1349.9                   1346.6                   1196.1                   1287.7                   1359.2                   1357.7                   1351.3                   1348.0                   856.43                   1035.1                   1213.9                   1224.2                   1222.6                   1220.4                   268.06                   279.74                   301.62                   307.39                   311.03                   312.08                   64.449                   65.953                   68.756                   69.491                   69.956                   70.113                   32.710                   33.007                   33.564                   33.712                   33.805                   33.837                   25.212                   25.314                   25.508                   25.560                   25.593                   25.604                   23.289                   23.355                   23.479                   23.513                   23.534                   23.541                   22.639                   22.688                   22.778                   22.801                   22.815                   22.820
12.000                   1.5000                   1.0000                   1.7000                   2000.0                   4000.0                   75.000                   1239.6                   1318.6                   1376.1                   1373.3                   1366.5                   1363.1                   1239.5                   1318.6                   1376.4                   1373.7                   1366.9                   1363.5                   1240.3                   1319.2                   1377.3                   1374.8                   1368.1                   1364.7                   922.14                   1083.6                   1236.0                   1243.7                   1241.2                   1238.8                   282.71                   294.26                   315.91                   321.61                   325.21                   326.25                   68.807                   70.320                   73.135                   73.873                   74.340                   74.497                   33.378                   33.677                   34.237                   34.385                   34.478                   34.510                   25.407                   25.509                   25.704                   25.756                   25.789                   25.800                   23.445                   23.511                   23.635                   23.668                   23.689                   23.697                   22.789                   22.838                   22.927                   22.950                   22.964                   22.969