% Model:              batchmodel_COIL_N_12_COIL_kr_1.5_COIL_kh_2_COIL_kturn_1.7_FUNZ_freq_10000_FUNZ_I_eff_1000.mph
% Version:            COMSOL 5.6.0.280
% Date:               Feb 1 2022, 14:51
% Table:              Tabella 1 - GRIGLIA_T
% COIL_N                 COIL_kr                  COIL_kh                  COIL_kturn               FUNZ_freq                FUNZ_I_eff               Time (s)                 Temperatura (degC), Punto: (0, 0)Temperatura (degC), Punto: (15, 0)Temperatura (degC), Punto: (28.051, 0)Temperatura (degC), Punto: (29.025, 0)Temperatura (degC), Punto: (29.61, 0)Temperatura (degC), Punto: (29.805, 0)Temperatura (degC), Punto: (0, 62.5)Temperatura (degC), Punto: (15, 62.5)Temperatura (degC), Punto: (28.051, 62.5)Temperatura (degC), Punto: (29.025, 62.5)Temperatura (degC), Punto: (29.61, 62.5)Temperatura (degC), Punto: (29.805, 62.5)Temperatura (degC), Punto: (0, 125)Temperatura (degC), Punto: (15, 125)Temperatura (degC), Punto: (28.051, 125)Temperatura (degC), Punto: (29.025, 125)Temperatura (degC), Punto: (29.61, 125)Temperatura (degC), Punto: (29.805, 125)Temperatura (degC), Punto: (0, 187.5)Temperatura (degC), Punto: (15, 187.5)Temperatura (degC), Punto: (28.051, 187.5)Temperatura (degC), Punto: (29.025, 187.5)Temperatura (degC), Punto: (29.61, 187.5)Temperatura (degC), Punto: (29.805, 187.5)Temperatura (degC), Punto: (0, 250)Temperatura (degC), Punto: (15, 250)Temperatura (degC), Punto: (28.051, 250)Temperatura (degC), Punto: (29.025, 250)Temperatura (degC), Punto: (29.61, 250)Temperatura (degC), Punto: (29.805, 250)Temperatura (degC), Punto: (0, 312.5)Temperatura (degC), Punto: (15, 312.5)Temperatura (degC), Punto: (28.051, 312.5)Temperatura (degC), Punto: (29.025, 312.5)Temperatura (degC), Punto: (29.61, 312.5)Temperatura (degC), Punto: (29.805, 312.5)Temperatura (degC), Punto: (0, 375)Temperatura (degC), Punto: (15, 375)Temperatura (degC), Punto: (28.051, 375)Temperatura (degC), Punto: (29.025, 375)Temperatura (degC), Punto: (29.61, 375)Temperatura (degC), Punto: (29.805, 375)Temperatura (degC), Punto: (0, 437.5)Temperatura (degC), Punto: (15, 437.5)Temperatura (degC), Punto: (28.051, 437.5)Temperatura (degC), Punto: (29.025, 437.5)Temperatura (degC), Punto: (29.61, 437.5)Temperatura (degC), Punto: (29.805, 437.5)Temperatura (degC), Punto: (0, 468.75)Temperatura (degC), Punto: (15, 468.75)Temperatura (degC), Punto: (28.051, 468.75)Temperatura (degC), Punto: (29.025, 468.75)Temperatura (degC), Punto: (29.61, 468.75)Temperatura (degC), Punto: (29.805, 468.75)Temperatura (degC), Punto: (0, 492.19)Temperatura (degC), Punto: (15, 492.19)Temperatura (degC), Punto: (28.051, 492.19)Temperatura (degC), Punto: (29.025, 492.19)Temperatura (degC), Punto: (29.61, 492.19)Temperatura (degC), Punto: (29.805, 492.19)
12.000                   1.5000                   2.0000                   1.7000                   10000                    1000.0                   0.0000                   20.000                   20.000                   20.000                   20.000                   20.005                   20.044                   20.000                   20.000                   20.000                   20.000                   20.005                   20.046                   20.000                   20.000                   20.000                   20.000                   20.006                   20.051                   20.000                   20.000                   20.000                   20.000                   20.007                   20.056                   20.000                   20.000                   20.000                   20.000                   20.008                   20.061                   20.000                   20.000                   20.000                   20.000                   20.008                   20.064                   20.000                   20.000                   20.000                   20.000                   20.008                   20.065                   20.000                   20.000                   20.000                   20.000                   20.000                   20.003                   20.000                   20.000                   20.000                   20.000                   20.000                   20.001                   20.000                   20.000                   20.000                   20.000                   20.000                   20.000
12.000                   1.5000                   2.0000                   1.7000                   10000                    1000.0                   5.0000                   21.917                   26.445                   50.420                   53.605                   55.614                   56.271                   21.908                   26.475                   50.882                   54.164                   56.224                   56.897                   21.986                   26.807                   52.936                   56.461                   58.689                   59.411                   22.077                   27.216                   55.678                   59.566                   61.992                   62.776                   22.149                   27.538                   57.910                   62.106                   64.699                   65.531                   22.161                   27.621                   58.562                   62.891                   65.574                   66.438                   22.111                   27.520                   58.316                   62.615                   65.293                   66.156                   20.244                   20.773                   23.242                   23.534                   23.714                   23.775                   20.056                   20.181                   20.790                   20.863                   20.909                   20.924                   20.024                   20.073                   20.307                   20.337                   20.356                   20.363
12.000                   1.5000                   2.0000                   1.7000                   10000                    1000.0                   10.000                   30.679                   40.553                   71.943                   75.321                   77.419                   78.093                   30.702                   40.691                   72.837                   76.342                   78.501                   79.194                   30.972                   41.343                   74.972                   78.668                   80.982                   81.725                   31.365                   42.336                   78.562                   82.600                   85.113                   85.919                   31.646                   43.080                   81.233                   85.487                   88.135                   88.972                   31.767                   43.488                   83.186                   87.686                   90.468                   91.355                   31.231                   42.708                   82.112                   86.606                   89.393                   90.279                   21.451                   22.591                   25.766                   26.074                   26.261                   26.324                   20.329                   20.594                   21.359                   21.436                   21.482                   21.498                   20.141                   20.250                   20.564                   20.596                   20.616                   20.623
12.000                   1.5000                   2.0000                   1.7000                   10000                    1000.0                   15.000                   44.340                   57.353                   92.575                   96.114                   98.301                   99.003                   44.451                   57.670                   94.004                   97.741                   99.988                   100.70                   44.865                   58.461                   96.149                   100.03                   102.44                   103.21                   45.641                   60.050                   101.22                   105.59                   108.20                   109.03                   46.111                   61.085                   104.93                   109.64                   112.34                   113.16                   46.452                   61.924                   107.60                   112.60                   115.46                   116.36                   44.826                   59.838                   104.79                   109.66                   112.53                   113.43                   23.514                   25.058                   28.742                   29.060                   29.249                   29.312                   20.798                   21.152                   22.039                   22.114                   22.160                   22.175                   20.344                   20.488                   20.836                   20.868                   20.887                   20.894
12.000                   1.5000                   2.0000                   1.7000                   10000                    1000.0                   20.000                   60.973                   75.738                   113.36                   117.05                   119.32                   120.06                   61.168                   76.172                   114.91                   118.80                   121.14                   121.88                   61.678                   77.055                   117.22                   121.28                   123.78                   124.57                   62.821                   79.152                   123.30                   127.88                   130.59                   131.44                   63.336                   80.214                   127.15                   132.15                   134.93                   135.77                   64.025                   81.632                   131.02                   136.34                   139.29                   140.21                   60.659                   77.617                   125.84                   130.96                   133.93                   134.85                   26.394                   28.238                   32.352                   32.684                   32.879                   32.943                   21.494                   21.913                   22.899                   22.976                   23.022                   23.037                   20.646                   20.809                   21.174                   21.207                   21.226                   21.233
12.000                   1.5000                   2.0000                   1.7000                   10000                    1000.0                   25.000                   78.811                   94.768                   134.25                   138.09                   140.45                   141.21                   79.072                   95.274                   135.85                   139.89                   142.33                   143.09                   79.656                   96.239                   138.35                   142.56                   145.16                   145.97                   81.118                   98.728                   144.95                   149.67                   152.48                   153.36                   81.571                   99.646                   148.21                   153.28                   156.13                   156.99                   82.690                   101.74                   153.54                   159.01                   162.07                   163.02                   77.191                   95.423                   145.91                   151.21                   154.29                   155.24                   29.740                   31.819                   36.257                   36.600                   36.801                   36.867                   22.341                   22.812                   23.877                   23.956                   24.002                   24.018                   21.014                   21.191                   21.570                   21.602                   21.622                   21.629
12.000                   1.5000                   2.0000                   1.7000                   10000                    1000.0                   30.000                   97.740                   114.55                   155.82                   159.83                   162.30                   163.09                   97.982                   115.00                   157.17                   161.35                   163.89                   164.67                   98.624                   116.02                   159.76                   164.12                   166.81                   167.65                   100.35                   118.83                   166.80                   171.67                   174.57                   175.47                   100.63                   119.49                   169.50                   174.70                   177.66                   178.55                   102.17                   122.17                   175.81                   181.39                   184.56                   185.54                   94.243                   113.33                   165.55                   170.97                   174.16                   175.13                   33.654                   35.913                   40.598                   40.948                   41.154                   41.222                   23.398                   23.907                   25.034                   25.115                   25.163                   25.179                   21.488                   21.674                   22.064                   22.097                   22.117                   22.124
12.000                   1.5000                   2.0000                   1.7000                   10000                    1000.0                   35.000                   117.53                   134.93                   177.91                   182.12                   184.71                   185.53                   117.68                   135.20                   178.79                   183.12                   185.74                   186.55                   118.37                   136.28                   181.39                   185.90                   188.68                   189.54                   120.30                   139.33                   188.81                   193.82                   196.81                   197.73                   120.33                   139.66                   190.96                   196.33                   199.44                   200.37                   122.30                   142.87                   197.87                   203.56                   206.83                   207.83                   111.70                   131.32                   184.84                   190.35                   193.65                   194.64                   38.013                   40.410                   45.280                   45.636                   45.845                   45.913                   24.619                   25.156                   26.330                   26.415                   26.465                   26.481                   22.045                   22.236                   22.635                   22.669                   22.690                   22.697
12.000                   1.5000                   2.0000                   1.7000                   10000                    1000.0                   40.000                   137.92                   155.86                   200.48                   204.88                   207.59                   208.43                   137.96                   155.97                   201.02                   205.50                   208.22                   209.05                   138.67                   157.08                   203.72                   208.40                   211.28                   212.16                   140.70                   160.23                   211.24                   216.43                   219.53                   220.47                   140.54                   160.37                   213.30                   218.88                   222.13                   223.10                   142.69                   163.74                   220.11                   225.94                   229.34                   230.36                   129.20                   149.29                   204.17                   209.83                   213.23                   214.25                   43.060                   45.539                   50.552                   50.918                   51.132                   51.202                   26.282                   26.829                   28.018                   28.106                   28.157                   28.175                   22.902                   23.098                   23.507                   23.542                   23.563                   23.570
12.000                   1.5000                   2.0000                   1.7000                   10000                    1000.0                   45.000                   158.61                   177.07                   223.29                   227.87                   230.70                   231.57                   158.52                   177.01                   223.55                   228.19                   231.01                   231.87                   159.25                   178.16                   226.39                   231.25                   234.25                   235.16                   161.32                   181.32                   233.88                   239.26                   242.47                   243.44                   161.01                   181.35                   236.08                   241.89                   245.28                   246.28                   163.22                   184.70                   242.42                   248.43                   251.96                   253.01                   146.71                   167.26                   223.53                   229.35                   232.86                   233.91                   48.450                   50.983                   56.118                   56.496                   56.717                   56.789                   28.163                   28.712                   29.901                   29.991                   30.044                   30.062                   23.909                   24.109                   24.527                   24.563                   24.585                   24.592
12.000                   1.5000                   2.0000                   1.7000                   10000                    1000.0                   50.000                   179.31                   198.28                   246.09                   250.86                   253.81                   254.70                   179.08                   198.05                   246.09                   250.87                   253.80                   254.68                   179.82                   199.23                   249.07                   254.11                   257.22                   258.16                   181.93                   202.41                   256.53                   262.08                   265.42                   266.41                   181.48                   202.33                   258.86                   264.90                   268.43                   269.46                   183.74                   205.66                   264.74                   270.93                   274.58                   275.66                   164.22                   185.23                   242.89                   248.88                   252.49                   253.57                   53.840                   56.426                   61.683                   62.073                   62.301                   62.375                   30.044                   30.595                   31.784                   31.877                   31.932                   31.950                   24.916                   25.120                   25.548                   25.585                   25.607                   25.615
12.000                   1.5000                   2.0000                   1.7000                   10000                    1000.0                   55.000                   200.00                   219.49                   268.89                   273.85                   276.92                   277.84                   199.63                   219.10                   268.62                   273.56                   276.59                   277.50                   200.40                   220.30                   271.74                   276.97                   280.19                   281.16                   202.54                   223.51                   279.17                   284.91                   288.36                   289.38                   201.95                   223.32                   281.63                   287.90                   291.58                   292.65                   204.27                   226.62                   287.05                   293.42                   297.21                   298.31                   181.74                   203.19                   262.25                   268.40                   272.13                   273.22                   59.230                   61.870                   67.249                   67.651                   67.885                   67.962                   31.925                   32.478                   33.667                   33.762                   33.819                   33.838                   25.922                   26.131                   26.569                   26.607                   26.630                   26.637
12.000                   1.5000                   2.0000                   1.7000                   10000                    1000.0                   60.000                   220.62                   240.63                   291.60                   296.75                   299.92                   300.86                   220.36                   240.43                   291.80                   296.95                   300.12                   301.06                   221.15                   241.66                   294.95                   300.39                   303.75                   304.73                   223.22                   244.75                   302.15                   308.10                   311.69                   312.74                   222.63                   244.64                   304.89                   311.36                   315.17                   316.25                   224.83                   247.77                   310.06                   316.65                   320.57                   321.70                   199.16                   221.19                   282.04                   288.43                   292.28                   293.40                   65.276                   67.961                   73.493                   73.916                   74.163                   74.244                   34.394                   34.954                   36.161                   36.260                   36.319                   36.339                   27.396                   27.609                   28.059                   28.098                   28.121                   28.129
12.000                   1.5000                   2.0000                   1.7000                   10000                    1000.0                   65.000                   241.23                   261.76                   314.30                   319.63                   322.92                   323.88                   241.10                   261.79                   315.06                   320.45                   323.76                   324.72                   241.91                   263.05                   318.23                   323.89                   327.37                   328.39                   243.91                   266.02                   325.18                   331.34                   335.06                   336.14                   243.35                   266.01                   328.22                   334.87                   338.81                   339.92                   245.40                   268.95                   333.15                   339.98                   344.04                   345.19                   216.58                   239.18                   301.89                   308.52                   312.50                   313.64                   71.408                   74.136                   79.827                   80.271                   80.532                   80.618                   36.941                   37.507                   38.735                   38.839                   38.901                   38.922                   28.931                   29.149                   29.611                   29.651                   29.675                   29.683
12.000                   1.5000                   2.0000                   1.7000                   10000                    1000.0                   70.000                   261.84                   282.89                   336.99                   342.52                   345.91                   346.89                   261.85                   283.16                   338.33                   343.94                   347.39                   348.38                   262.68                   284.45                   341.52                   347.39                   351.00                   352.05                   264.60                   287.29                   348.21                   354.58                   358.43                   359.54                   264.06                   287.38                   351.54                   358.39                   362.46                   363.58                   265.97                   290.13                   356.25                   363.31                   367.50                   368.68                   233.99                   257.18                   321.73                   328.61                   332.72                   333.89                   77.540                   80.312                   86.161                   86.627                   86.902                   86.992                   39.488                   40.061                   41.310                   41.418                   41.483                   41.504                   30.466                   30.690                   31.163                   31.204                   31.229                   31.237
12.000                   1.5000                   2.0000                   1.7000                   10000                    1000.0                   75.000                   282.42                   304.01                   359.69                   365.40                   368.90                   369.91                   282.57                   304.50                   361.55                   367.38                   370.97                   371.99                   283.43                   305.82                   364.78                   370.86                   374.61                   375.68                   285.26                   308.53                   371.22                   377.80                   381.79                   382.92                   284.74                   308.71                   374.80                   381.83                   386.02                   387.16                   286.51                   311.28                   379.32                   386.61                   390.93                   392.14                   251.39                   275.17                   341.58                   348.71                   352.95                   354.14                   83.741                   86.560                   92.573                   93.061                   93.349                   93.444                   42.103                   42.683                   43.954                   44.066                   44.134                   44.157                   32.061                   32.291                   32.775                   32.817                   32.842                   32.851