% Model:              batchmodel_COIL_N_12_COIL_kr_3_COIL_kh_1_COIL_kturn_1.7_FUNZ_freq_10000_FUNZ_I_eff_2500.mph
% Version:            COMSOL 5.6.0.280
% Date:               Feb 2 2022, 01:08
% Table:              Tabella 1 - GRIGLIA_T
% COIL_N                 COIL_kr                  COIL_kh                  COIL_kturn               FUNZ_freq                FUNZ_I_eff               Time (s)                 Temperatura (degC), Punto: (0, 0)Temperatura (degC), Punto: (15, 0)Temperatura (degC), Punto: (28.051, 0)Temperatura (degC), Punto: (29.025, 0)Temperatura (degC), Punto: (29.61, 0)Temperatura (degC), Punto: (29.805, 0)Temperatura (degC), Punto: (0, 62.5)Temperatura (degC), Punto: (15, 62.5)Temperatura (degC), Punto: (28.051, 62.5)Temperatura (degC), Punto: (29.025, 62.5)Temperatura (degC), Punto: (29.61, 62.5)Temperatura (degC), Punto: (29.805, 62.5)Temperatura (degC), Punto: (0, 125)Temperatura (degC), Punto: (15, 125)Temperatura (degC), Punto: (28.051, 125)Temperatura (degC), Punto: (29.025, 125)Temperatura (degC), Punto: (29.61, 125)Temperatura (degC), Punto: (29.805, 125)Temperatura (degC), Punto: (0, 187.5)Temperatura (degC), Punto: (15, 187.5)Temperatura (degC), Punto: (28.051, 187.5)Temperatura (degC), Punto: (29.025, 187.5)Temperatura (degC), Punto: (29.61, 187.5)Temperatura (degC), Punto: (29.805, 187.5)Temperatura (degC), Punto: (0, 250)Temperatura (degC), Punto: (15, 250)Temperatura (degC), Punto: (28.051, 250)Temperatura (degC), Punto: (29.025, 250)Temperatura (degC), Punto: (29.61, 250)Temperatura (degC), Punto: (29.805, 250)Temperatura (degC), Punto: (0, 312.5)Temperatura (degC), Punto: (15, 312.5)Temperatura (degC), Punto: (28.051, 312.5)Temperatura (degC), Punto: (29.025, 312.5)Temperatura (degC), Punto: (29.61, 312.5)Temperatura (degC), Punto: (29.805, 312.5)Temperatura (degC), Punto: (0, 375)Temperatura (degC), Punto: (15, 375)Temperatura (degC), Punto: (28.051, 375)Temperatura (degC), Punto: (29.025, 375)Temperatura (degC), Punto: (29.61, 375)Temperatura (degC), Punto: (29.805, 375)Temperatura (degC), Punto: (0, 437.5)Temperatura (degC), Punto: (15, 437.5)Temperatura (degC), Punto: (28.051, 437.5)Temperatura (degC), Punto: (29.025, 437.5)Temperatura (degC), Punto: (29.61, 437.5)Temperatura (degC), Punto: (29.805, 437.5)Temperatura (degC), Punto: (0, 468.75)Temperatura (degC), Punto: (15, 468.75)Temperatura (degC), Punto: (28.051, 468.75)Temperatura (degC), Punto: (29.025, 468.75)Temperatura (degC), Punto: (29.61, 468.75)Temperatura (degC), Punto: (29.805, 468.75)Temperatura (degC), Punto: (0, 492.19)Temperatura (degC), Punto: (15, 492.19)Temperatura (degC), Punto: (28.051, 492.19)Temperatura (degC), Punto: (29.025, 492.19)Temperatura (degC), Punto: (29.61, 492.19)Temperatura (degC), Punto: (29.805, 492.19)
12.000                   3.0000                   1.0000                   1.7000                   10000                    2500.0                   0.0000                   20.000                   20.000                   20.000                   20.000                   20.228                   20.526                   20.000                   20.000                   20.000                   20.000                   20.228                   20.526                   20.000                   20.000                   20.000                   20.000                   20.224                   20.519                   20.000                   20.000                   20.000                   20.000                   20.159                   20.407                   20.000                   20.000                   20.000                   20.000                   20.022                   20.118                   20.000                   20.000                   20.000                   20.000                   20.002                   20.023                   20.000                   20.000                   20.000                   20.000                   20.000                   20.006                   20.000                   20.000                   20.000                   20.000                   20.000                   20.002                   20.000                   20.000                   20.000                   20.000                   20.000                   20.001                   20.000                   20.000                   20.000                   20.000                   20.000                   20.001
12.000                   3.0000                   1.0000                   1.7000                   10000                    2500.0                   5.0000                   35.521                   92.169                   477.02                   547.60                   586.74                   594.72                   35.301                   91.762                   474.61                   545.23                   584.72                   592.75                   34.905                   89.776                   457.84                   524.35                   562.19                   569.99                   30.977                   72.258                   336.44                   379.86                   405.81                   411.57                   22.785                   33.720                   99.937                   108.88                   114.36                   116.00                   20.558                   22.940                   38.694                   40.715                   41.863                   42.245                   19.738                   19.749                   27.703                   28.936                   29.649                   29.845                   20.080                   20.435                   22.920                   23.267                   23.429                   23.479                   20.037                   20.330                   23.182                   23.566                   23.762                   23.806                   20.113                   20.632                   23.668                   23.860                   23.774                   23.769
12.000                   3.0000                   1.0000                   1.7000                   10000                    2500.0                   10.000                   127.04                   251.35                   823.36                   931.99                   981.94                   990.73                   126.50                   250.75                   853.27                   967.59                   1015.8                   1023.9                   123.73                   244.66                   798.27                   907.07                   959.04                   968.26                   100.20                   195.88                   600.18                   662.95                   697.24                   704.19                   43.725                   71.703                   165.56                   176.36                   183.02                   184.89                   25.147                   31.368                   52.407                   54.765                   55.974                   56.376                   21.041                   23.577                   34.340                   35.451                   36.130                   36.226                   20.793                   21.798                   25.478                   25.856                   25.982                   26.014                   20.708                   21.647                   25.394                   25.956                   26.167                   26.197                   20.917                   22.055                   26.101                   26.603                   26.642                   26.647
12.000                   3.0000                   1.0000                   1.7000                   10000                    2500.0                   15.000                   253.04                   399.35                   882.08                   928.97                   950.10                   953.84                   252.43                   401.41                   1109.8                   1157.9                   1169.2                   1170.0                   247.30                   389.88                   876.90                   932.63                   958.58                   963.20                   203.83                   323.06                   764.59                   837.58                   875.29                   882.32                   81.462                   118.87                   225.88                   237.50                   244.67                   246.65                   33.417                   41.304                   61.645                   63.644                   64.874                   65.278                   24.311                   27.411                   34.388                   34.979                   35.334                   35.452                   22.046                   23.170                   25.586                   25.784                   25.902                   25.941                   21.873                   22.833                   24.624                   24.745                   24.816                   24.839                   22.122                   23.141                   24.729                   24.806                   24.847                   24.860
12.000                   3.0000                   1.0000                   1.7000                   10000                    2500.0                   20.000                   368.74                   514.18                   960.66                   992.76                   1006.0                   1008.3                   368.14                   517.87                   1128.8                   1155.7                   1161.5                   1161.5                   361.91                   502.53                   917.92                   955.85                   973.67                   976.84                   306.01                   430.29                   880.46                   947.51                   979.21                   984.78                   126.93                   169.09                   286.51                   299.28                   307.14                   309.23                   43.363                   51.704                   72.435                   74.470                   75.722                   76.134                   27.627                   30.374                   36.589                   37.164                   37.516                   37.633                   23.265                   24.224                   26.324                   26.514                   26.630                   26.668                   22.873                   23.586                   24.959                   25.071                   25.140                   25.162                   23.001                   23.646                   24.659                   24.724                   24.762                   24.775
12.000                   3.0000                   1.0000                   1.7000                   10000                    2500.0                   25.000                   464.14                   601.68                   1053.5                   1078.1                   1084.5                   1084.8                   463.50                   604.46                   1113.7                   1132.7                   1136.4                   1136.2                   457.18                   589.40                   983.74                   1011.3                   1022.5                   1024.2                   395.96                   517.95                   962.19                   1015.2                   1037.4                   1040.9                   174.67                   219.83                   345.59                   359.31                   367.70                   369.87                   54.194                   62.780                   83.954                   86.026                   87.301                   87.719                   30.703                   33.241                   39.220                   39.791                   40.141                   40.258                   24.363                   25.224                   27.208                   27.395                   27.509                   27.547                   23.644                   24.215                   25.431                   25.540                   25.607                   25.630                   23.597                   24.051                   24.862                   24.924                   24.961                   24.973
12.000                   3.0000                   1.0000                   1.7000                   10000                    2500.0                   30.000                   543.02                   670.49                   1096.3                   1111.6                   1114.5                   1114.3                   542.30                   671.46                   1108.2                   1122.5                   1125.0                   1124.6                   536.31                   659.00                   1065.0                   1085.4                   1090.3                   1090.4                   473.37                   591.97                   1059.2                   1094.9                   1104.1                   1104.8                   222.06                   269.31                   401.24                   415.64                   424.38                   426.58                   65.704                   74.484                   96.061                   98.170                   99.467                   99.891                   33.715                   36.157                   42.040                   42.609                   42.959                   43.076                   25.408                   26.217                   28.143                   28.328                   28.442                   28.480                   24.304                   24.803                   25.946                   26.053                   26.119                   26.141                   24.080                   24.445                   25.168                   25.228                   25.264                   25.276
12.000                   3.0000                   1.0000                   1.7000                   10000                    2500.0                   35.000                   604.07                   721.91                   1113.9                   1124.8                   1126.4                   1125.9                   603.36                   722.38                   1117.1                   1127.8                   1129.3                   1128.8                   598.10                   712.38                   1099.2                   1112.4                   1114.8                   1114.4                   537.24                   651.37                   1093.3                   1114.9                   1119.6                   1119.6                   267.12                   315.80                   452.53                   467.47                   476.49                   478.70                   78.042                   87.005                   109.04                   111.20                   112.53                   112.97                   36.788                   39.202                   45.077                   45.649                   46.001                   46.119                   26.434                   27.222                   29.127                   29.312                   29.425                   29.463                   24.913                   25.383                   26.497                   26.605                   26.670                   26.692                   24.523                   24.854                   25.545                   25.604                   25.640                   25.652
12.000                   3.0000                   1.0000                   1.7000                   10000                    2500.0                   40.000                   653.96                   769.67                   1127.5                   1135.6                   1136.2                   1135.6                   653.32                   768.93                   1127.9                   1136.0                   1136.6                   1136.0                   648.74                   759.88                   1119.6                   1128.7                   1129.6                   1129.0                   592.23                   701.33                   1105.6                   1119.9                   1122.4                   1122.0                   309.89                   359.69                   500.26                   515.71                   524.98                   527.20                   90.908                   100.05                   122.62                   124.84                   126.20                   126.65                   39.956                   42.363                   48.257                   48.833                   49.187                   49.305                   27.466                   28.243                   30.138                   30.322                   30.436                   30.474                   25.516                   25.971                   27.070                   27.177                   27.243                   27.265                   24.967                   25.281                   25.954                   26.013                   26.049                   26.061
12.000                   3.0000                   1.0000                   1.7000                   10000                    2500.0                   45.000                   693.66                   818.16                   1139.9                   1145.9                   1145.8                   1145.1                   693.10                   816.95                   1139.4                   1145.5                   1145.5                   1144.7                   689.31                   808.57                   1134.5                   1141.0                   1141.2                   1140.5                   638.96                   744.78                   1111.7                   1122.0                   1123.3                   1122.8                   350.29                   400.85                   544.15                   560.00                   569.46                   571.70                   104.21                   113.56                   136.71                   138.98                   140.38                   140.84                   43.235                   45.647                   51.573                   52.153                   52.509                   52.629                   28.510                   29.282                   31.172                   31.357                   31.470                   31.508                   26.124                   26.571                   27.662                   27.769                   27.834                   27.856                   25.422                   25.726                   26.390                   26.449                   26.484                   26.496
12.000                   3.0000                   1.0000                   1.7000                   10000                    2500.0                   50.000                   724.63                   866.45                   1152.0                   1156.5                   1156.0                   1155.1                   723.98                   865.22                   1151.5                   1156.0                   1155.5                   1154.7                   720.73                   857.53                   1147.6                   1152.4                   1151.9                   1151.1                   678.03                   786.45                   1117.1                   1124.9                   1125.5                   1124.9                   388.29                   439.23                   583.92                   600.00                   609.58                   611.80                   117.89                   127.46                   151.21                   153.55                   154.98                   155.45                   46.633                   49.057                   55.022                   55.607                   55.966                   56.086                   29.571                   30.340                   32.229                   32.414                   32.528                   32.566                   26.743                   27.186                   28.272                   28.379                   28.444                   28.466                   25.891                   26.190                   26.848                   26.907                   26.942                   26.954
12.000                   3.0000                   1.0000                   1.7000                   10000                    2500.0                   55.000                   760.74                   912.84                   1165.3                   1168.7                   1167.8                   1166.9                   760.01                   911.76                   1164.9                   1168.3                   1167.4                   1166.5                   756.06                   904.48                   1160.9                   1164.5                   1163.6                   1162.7                   709.04                   827.22                   1123.3                   1129.3                   1129.4                   1128.7                   422.67                   473.56                   618.18                   634.36                   643.98                   646.19                   131.96                   141.77                   166.11                   168.51                   169.98                   170.46                   50.232                   52.673                   58.683                   59.272                   59.634                   59.756                   30.667                   31.435                   33.326                   33.511                   33.624                   33.663                   27.386                   27.826                   28.911                   29.017                   29.083                   29.105                   26.386                   26.682                   27.338                   27.396                   27.432                   27.444
12.000                   3.0000                   1.0000                   1.7000                   10000                    2500.0                   60.000                   808.65                   957.35                   1180.0                   1182.5                   1181.3                   1180.3                   808.04                   956.49                   1179.6                   1182.2                   1180.9                   1180.0                   802.04                   949.23                   1175.0                   1177.6                   1176.5                   1175.5                   734.30                   866.69                   1130.1                   1134.9                   1134.5                   1133.8                   453.87                   504.38                   647.91                   664.18                   673.82                   676.00                   146.32                   156.35                   181.29                   183.74                   185.26                   185.74                   54.015                   56.476                   62.534                   63.128                   63.493                   63.615                   31.796                   32.565                   34.458                   34.643                   34.757                   34.795                   28.052                   28.492                   29.575                   29.681                   29.747                   29.769                   26.906                   27.201                   27.855                   27.913                   27.949                   27.960
12.000                   3.0000                   1.0000                   1.7000                   10000                    2500.0                   65.000                   857.39                   1001.1                   1195.1                   1196.9                   1195.4                   1194.4                   856.88                   1000.4                   1194.8                   1196.6                   1195.0                   1194.0                   849.04                   993.11                   1189.5                   1191.4                   1189.9                   1188.9                   761.74                   905.50                   1137.1                   1140.7                   1139.9                   1139.1                   484.44                   534.51                   676.76                   693.10                   702.76                   704.91                   160.70                   170.95                   196.47                   198.99                   200.54                   201.03                   57.842                   60.322                   66.429                   67.027                   67.395                   67.518                   32.934                   33.704                   35.599                   35.785                   35.899                   35.937                   28.724                   29.163                   30.245                   30.352                   30.417                   30.439                   27.432                   27.726                   28.378                   28.436                   28.471                   28.483
12.000                   3.0000                   1.0000                   1.7000                   10000                    2500.0                   70.000                   911.43                   1039.6                   1213.7                   1214.9                   1213.1                   1212.0                   910.98                   1039.0                   1213.3                   1214.5                   1212.8                   1211.7                   902.55                   1031.4                   1207.1                   1208.4                   1206.7                   1205.6                   803.21                   939.94                   1145.4                   1148.0                   1147.0                   1146.1                   511.01                   560.13                   699.97                   716.23                   725.91                   728.05                   175.17                   185.62                   211.69                   214.27                   215.86                   216.37                   61.944                   64.445                   70.603                   71.206                   71.577                   71.701                   34.131                   34.903                   36.802                   36.988                   37.102                   37.140                   29.436                   29.874                   30.957                   31.063                   31.128                   31.150                   27.996                   28.290                   28.940                   28.998                   29.034                   29.045
12.000                   3.0000                   1.0000                   1.7000                   10000                    2500.0                   75.000                   965.48                   1078.2                   1232.2                   1232.8                   1230.8                   1229.7                   965.08                   1077.7                   1231.8                   1232.5                   1230.5                   1229.3                   956.06                   1069.7                   1224.7                   1225.5                   1223.5                   1222.4                   844.68                   974.39                   1153.6                   1155.4                   1154.0                   1153.1                   537.58                   585.75                   723.18                   739.36                   749.06                   751.19                   189.64                   200.29                   226.92                   229.56                   231.18                   231.70                   66.046                   68.568                   74.777                   75.385                   75.759                   75.884                   35.329                   36.102                   38.004                   38.190                   38.305                   38.343                   30.147                   30.586                   31.668                   31.774                   31.839                   31.861                   28.561                   28.853                   29.503                   29.560                   29.596                   29.607