% Model:              batchmodel_COIL_N_12_COIL_kr_3_COIL_kh_2_COIL_kturn_1.7_FUNZ_freq_6000_FUNZ_I_eff_1000.mph
% Version:            COMSOL 5.6.0.280
% Date:               Feb 2 2022, 02:33
% Table:              Tabella 1 - GRIGLIA_T
% COIL_N                 COIL_kr                  COIL_kh                  COIL_kturn               FUNZ_freq                FUNZ_I_eff               Time (s)                 Temperatura (degC), Punto: (0, 0)Temperatura (degC), Punto: (15, 0)Temperatura (degC), Punto: (27.483, 0)Temperatura (degC), Punto: (28.742, 0)Temperatura (degC), Punto: (29.497, 0)Temperatura (degC), Punto: (29.748, 0)Temperatura (degC), Punto: (0, 62.5)Temperatura (degC), Punto: (15, 62.5)Temperatura (degC), Punto: (27.483, 62.5)Temperatura (degC), Punto: (28.742, 62.5)Temperatura (degC), Punto: (29.497, 62.5)Temperatura (degC), Punto: (29.748, 62.5)Temperatura (degC), Punto: (0, 125)Temperatura (degC), Punto: (15, 125)Temperatura (degC), Punto: (27.483, 125)Temperatura (degC), Punto: (28.742, 125)Temperatura (degC), Punto: (29.497, 125)Temperatura (degC), Punto: (29.748, 125)Temperatura (degC), Punto: (0, 187.5)Temperatura (degC), Punto: (15, 187.5)Temperatura (degC), Punto: (27.483, 187.5)Temperatura (degC), Punto: (28.742, 187.5)Temperatura (degC), Punto: (29.497, 187.5)Temperatura (degC), Punto: (29.748, 187.5)Temperatura (degC), Punto: (0, 250)Temperatura (degC), Punto: (15, 250)Temperatura (degC), Punto: (27.483, 250)Temperatura (degC), Punto: (28.742, 250)Temperatura (degC), Punto: (29.497, 250)Temperatura (degC), Punto: (29.748, 250)Temperatura (degC), Punto: (0, 312.5)Temperatura (degC), Punto: (15, 312.5)Temperatura (degC), Punto: (27.483, 312.5)Temperatura (degC), Punto: (28.742, 312.5)Temperatura (degC), Punto: (29.497, 312.5)Temperatura (degC), Punto: (29.748, 312.5)Temperatura (degC), Punto: (0, 375)Temperatura (degC), Punto: (15, 375)Temperatura (degC), Punto: (27.483, 375)Temperatura (degC), Punto: (28.742, 375)Temperatura (degC), Punto: (29.497, 375)Temperatura (degC), Punto: (29.748, 375)Temperatura (degC), Punto: (0, 437.5)Temperatura (degC), Punto: (15, 437.5)Temperatura (degC), Punto: (27.483, 437.5)Temperatura (degC), Punto: (28.742, 437.5)Temperatura (degC), Punto: (29.497, 437.5)Temperatura (degC), Punto: (29.748, 437.5)Temperatura (degC), Punto: (0, 468.75)Temperatura (degC), Punto: (15, 468.75)Temperatura (degC), Punto: (27.483, 468.75)Temperatura (degC), Punto: (28.742, 468.75)Temperatura (degC), Punto: (29.497, 468.75)Temperatura (degC), Punto: (29.748, 468.75)Temperatura (degC), Punto: (0, 492.19)Temperatura (degC), Punto: (15, 492.19)Temperatura (degC), Punto: (27.483, 492.19)Temperatura (degC), Punto: (28.742, 492.19)Temperatura (degC), Punto: (29.497, 492.19)Temperatura (degC), Punto: (29.748, 492.19)
12.000                   3.0000                   2.0000                   1.7000                   6000.0                   1000.0                   0.0000                   20.000                   20.000                   20.000                   20.000                   20.002                   20.028                   20.000                   20.000                   20.000                   20.000                   20.002                   20.028                   20.000                   20.000                   20.000                   20.000                   20.002                   20.028                   20.000                   20.000                   20.000                   20.000                   20.002                   20.028                   20.000                   20.000                   20.000                   20.000                   20.002                   20.028                   20.000                   20.000                   20.000                   20.000                   20.002                   20.028                   20.000                   20.000                   20.000                   20.000                   20.002                   20.023                   20.000                   20.000                   20.000                   20.000                   20.000                   20.005                   20.000                   20.000                   20.000                   20.000                   20.000                   20.002                   20.000                   20.000                   20.000                   20.000                   20.000                   20.001
12.000                   3.0000                   2.0000                   1.7000                   6000.0                   1000.0                   5.0000                   21.065                   24.409                   42.889                   46.103                   48.198                   48.886                   21.069                   24.445                   43.335                   46.695                   48.772                   49.453                   21.066                   24.423                   43.138                   46.481                   48.539                   49.220                   21.076                   24.479                   43.498                   46.877                   48.944                   49.629                   21.077                   24.488                   43.657                   47.077                   49.171                   49.851                   21.071                   24.447                   43.363                   46.733                   48.745                   49.404                   20.891                   23.710                   39.502                   42.360                   44.157                   44.740                   20.369                   21.580                   29.758                   31.621                   32.599                   32.890                   20.196                   20.890                   26.748                   28.175                   28.500                   28.575                   20.113                   20.455                   22.942                   23.542                   23.805                   23.860
12.000                   3.0000                   2.0000                   1.7000                   6000.0                   1000.0                   10.000                   27.529                   35.316                   59.643                   63.151                   65.373                   66.086                   27.566                   35.439                   60.711                   64.596                   66.737                   67.434                   27.545                   35.380                   60.498                   64.350                   66.516                   67.204                   27.569                   35.433                   60.323                   63.964                   66.149                   66.856                   27.621                   35.565                   60.745                   64.485                   66.684                   67.387                   27.629                   35.560                   60.963                   64.878                   67.060                   67.747                   26.289                   32.830                   53.624                   56.741                   58.628                   59.212                   23.083                   26.483                   39.277                   41.547                   42.722                   43.042                   21.878                   24.083                   33.244                   34.670                   35.008                   35.078                   21.175                   22.409                   27.244                   28.191                   28.487                   28.515
12.000                   3.0000                   2.0000                   1.7000                   6000.0                   1000.0                   15.000                   37.704                   48.197                   75.327                   78.993                   81.277                   82.005                   37.803                   48.471                   77.463                   81.752                   83.889                   84.588                   37.734                   48.337                   76.989                   81.222                   83.442                   84.127                   37.716                   48.257                   76.114                   79.926                   82.179                   82.899                   37.916                   48.660                   76.977                   80.918                   83.210                   83.927                   38.051                   48.942                   78.405                   82.716                   85.000                   85.718                   34.727                   43.449                   66.284                   69.450                   71.300                   71.860                   27.913                   33.183                   50.021                   52.808                   54.139                   54.379                   25.141                   28.860                   41.698                   43.490                   43.869                   43.931                   23.396                   25.625                   32.561                   33.820                   34.241                   34.265
12.000                   3.0000                   2.0000                   1.7000                   6000.0                   1000.0                   20.000                   50.659                   62.216                   90.391                   94.124                   96.437                   97.175                   50.961                   62.844                   93.457                   97.870                   100.05                   100.76                   50.800                   62.643                   93.024                   97.428                   99.704                   100.40                   50.529                   62.161                   91.344                   95.248                   97.562                   98.297                   50.824                   62.630                   92.046                   96.051                   98.401                   99.127                   51.339                   63.486                   94.300                   98.599                   100.94                   101.67                   45.218                   54.631                   77.636                   80.696                   82.445                   82.975                   34.953                   41.279                   59.603                   62.491                   63.870                   64.072                   30.437                   35.176                   49.951                   52.003                   52.576                   52.646                   27.411                   30.433                   38.884                   40.244                   40.728                   40.784
12.000                   3.0000                   2.0000                   1.7000                   6000.0                   1000.0                   25.000                   64.096                   76.444                   105.47                   109.27                   111.62                   112.37                   64.643                   77.440                   109.18                   113.64                   115.90                   116.63                   64.421                   77.247                   109.11                   113.65                   116.00                   116.71                   63.825                   76.295                   106.61                   110.61                   112.98                   113.73                   64.188                   76.795                   107.18                   111.27                   113.71                   114.44                   65.110                   78.205                   110.03                   114.30                   116.70                   117.44                   56.083                   65.987                   89.111                   92.107                   93.792                   94.309                   42.517                   49.728                   69.336                   72.303                   73.693                   73.865                   36.306                   41.964                   58.610                   60.905                   61.625                   61.704                   31.982                   35.710                   45.498                   46.931                   47.451                   47.528
12.000                   3.0000                   2.0000                   1.7000                   6000.0                   1000.0                   30.000                   78.286                   91.004                   120.61                   124.48                   126.87                   127.63                   79.149                   92.383                   124.45                   128.84                   131.21                   131.96                   78.924                   92.333                   125.29                   129.93                   132.37                   133.11                   77.880                   90.800                   121.94                   126.05                   128.50                   129.26                   78.268                   91.282                   122.50                   126.72                   129.28                   130.04                   79.634                   93.198                   125.54                   129.78                   132.22                   132.98                   67.541                   77.640                   100.87                   103.88                   105.57                   106.10                   50.933                   58.761                   79.412                   82.436                   83.771                   83.925                   43.122                   49.541                   68.052                   70.569                   71.350                   71.438                   37.472                   41.765                   52.592                   54.056                   54.565                   54.645
12.000                   3.0000                   2.0000                   1.7000                   6000.0                   1000.0                   35.000                   92.967                   105.95                   136.20                   140.16                   142.60                   143.37                   94.131                   107.66                   140.26                   144.67                   147.13                   147.90                   93.827                   107.55                   141.15                   145.84                   148.38                   149.14                   92.369                   105.58                   137.38                   141.58                   144.08                   144.86                   92.802                   106.13                   138.21                   142.61                   145.28                   146.04                   94.441                   108.30                   141.25                   145.55                   148.04                   148.80                   79.493                   89.752                   113.37                   116.45                   118.19                   118.74                   59.905                   68.020                   88.994                   91.970                   93.243                   93.397                   50.605                   57.358                   76.459                   78.989                   79.785                   79.881                   43.997                   48.619                   59.955                   61.416                   61.921                   62.005
12.000                   3.0000                   2.0000                   1.7000                   6000.0                   1000.0                   40.000                   107.82                   121.03                   151.94                   155.99                   158.49                   159.27                   109.28                   123.05                   156.26                   160.71                   163.26                   164.04                   108.87                   122.82                   156.90                   161.62                   164.25                   165.04                   107.01                   120.45                   152.86                   157.14                   159.68                   160.47                   107.49                   121.09                   154.06                   158.66                   161.41                   162.19                   109.35                   123.45                   157.04                   161.42                   163.95                   164.73                   91.618                   102.02                   126.13                   129.32                   131.11                   131.68                   69.072                   77.360                   98.404                   101.29                   102.50                   102.66                   58.323                   65.259                   84.504                   86.972                   87.769                   87.870                   50.885                   55.753                   67.413                   68.859                   69.363                   69.451
12.000                   3.0000                   2.0000                   1.7000                   6000.0                   1000.0                   45.000                   122.67                   136.12                   167.68                   171.83                   174.38                   175.17                   124.43                   138.45                   172.26                   176.76                   179.38                   180.19                   123.91                   138.09                   172.64                   177.40                   180.12                   180.95                   121.65                   135.33                   168.33                   172.70                   175.29                   176.09                   122.19                   136.06                   169.92                   174.70                   177.55                   178.33                   124.25                   138.59                   172.83                   177.29                   179.87                   180.66                   103.74                   114.30                   138.90                   142.18                   144.03                   144.61                   78.239                   86.699                   107.81                   110.62                   111.76                   111.93                   66.042                   73.160                   92.548                   94.956                   95.753                   95.859                   57.774                   62.887                   74.870                   76.302                   76.805                   76.896
12.000                   3.0000                   2.0000                   1.7000                   6000.0                   1000.0                   50.000                   137.28                   150.87                   182.92                   187.16                   189.77                   190.58                   139.19                   153.31                   187.28                   191.80                   194.48                   195.31                   138.59                   152.83                   187.38                   192.12                   194.89                   195.73                   136.07                   149.86                   183.12                   187.53                   190.17                   190.98                   136.59                   150.57                   184.67                   189.48                   192.36                   193.16                   138.57                   152.93                   187.21                   191.69                   194.32                   195.11                   115.53                   126.19                   151.17                   154.53                   156.46                   157.07                   85.878                   93.908                   113.37                   115.88                   116.93                   117.11                   72.078                   78.678                   95.958                   98.036                   98.754                   98.863                   63.252                   68.007                   78.722                   79.950                   80.388                   80.471
12.000                   3.0000                   2.0000                   1.7000                   6000.0                   1000.0                   55.000                   151.66                   165.30                   197.67                   202.00                   204.67                   205.50                   153.59                   167.65                   201.35                   205.86                   208.59                   209.42                   152.90                   167.05                   201.15                   205.80                   208.58                   209.43                   150.27                   164.06                   197.23                   201.66                   204.35                   205.18                   150.71                   164.64                   198.37                   203.05                   205.89                   206.71                   152.31                   166.49                   200.22                   204.67                   207.34                   208.15                   127.00                   137.70                   162.98                   166.39                   168.41                   169.05                   92.043                   99.063                   115.21                   117.22                   118.15                   118.35                   76.493                   81.901                   94.902                   96.392                   96.957                   97.063                   67.372                   71.187                   79.100                   79.942                   80.254                   80.318
12.000                   3.0000                   2.0000                   1.7000                   6000.0                   1000.0                   60.000                   166.03                   179.73                   212.42                   216.84                   219.58                   220.42                   167.98                   181.99                   215.43                   219.92                   222.69                   223.54                   167.22                   181.28                   214.92                   219.48                   222.28                   223.13                   164.47                   178.26                   211.34                   215.79                   218.54                   219.38                   164.83                   178.71                   212.06                   216.61                   219.43                   220.26                   166.05                   180.04                   213.24                   217.65                   220.36                   221.19                   138.47                   149.22                   174.79                   178.25                   180.36                   181.03                   98.208                   104.22                   117.05                   118.56                   119.36                   119.58                   80.908                   85.123                   93.846                   94.748                   95.159                   95.263                   71.492                   74.366                   79.478                   79.934                   80.121                   80.164
12.000                   3.0000                   2.0000                   1.7000                   6000.0                   1000.0                   65.000                   180.39                   194.20                   227.33                   231.83                   234.65                   235.51                   182.34                   196.34                   229.74                   234.26                   237.08                   237.94                   181.51                   195.53                   229.00                   233.52                   236.34                   237.20                   178.68                   192.52                   225.71                   230.22                   233.02                   233.88                   178.95                   192.85                   226.08                   230.57                   233.36                   234.22                   179.73                   193.59                   226.48                   230.89                   233.65                   234.49                   149.89                   160.71                   186.65                   190.17                   192.38                   193.07                   104.24                   109.42                   119.68                   120.81                   121.53                   121.77                   85.183                   88.407                   93.808                   94.279                   94.582                   94.688                   75.435                   77.503                   80.355                   80.514                   80.604                   80.635
12.000                   3.0000                   2.0000                   1.7000                   6000.0                   1000.0                   70.000                   194.72                   208.74                   242.62                   247.25                   250.14                   251.02                   196.60                   210.74                   244.68                   249.30                   252.18                   253.06                   195.72                   209.88                   243.89                   248.50                   251.38                   252.25                   192.90                   206.93                   240.79                   245.41                   248.29                   249.16                   193.08                   207.15                   240.96                   245.52                   248.34                   249.22                   193.23                   207.13                   240.32                   244.82                   247.63                   248.48                   161.18                   172.16                   198.65                   202.28                   204.54                   205.25                   109.94                   114.74                   124.34                   125.42                   126.14                   126.39                   89.091                   91.849                   96.408                   96.855                   97.167                   97.287                   78.919                   80.532                   82.525                   82.616                   82.689                   82.722
12.000                   3.0000                   2.0000                   1.7000                   6000.0                   1000.0                   75.000                   209.05                   223.28                   257.92                   262.66                   265.64                   266.54                   210.85                   225.14                   259.61                   264.33                   267.29                   268.18                   209.93                   224.22                   258.77                   263.47                   266.42                   267.29                   207.12                   221.34                   255.87                   260.60                   263.55                   264.44                   207.22                   221.45                   255.83                   260.47                   263.33                   264.22                   206.72                   220.66                   254.15                   258.74                   261.60                   262.47                   172.47                   183.61                   210.65                   214.38                   216.71                   217.44                   115.64                   120.06                   129.00                   130.03                   130.74                   131.01                   93.000                   95.292                   99.008                   99.430                   99.752                   99.887                   82.403                   83.561                   84.694                   84.719                   84.773                   84.809