% Model:              batchmodel_BILLETTA_r_0.0131664_COIL_kr_1.9397_COIL_kw_5.8583_FUNZ_freq_8940.8_FUNZ_I_eff_61.5962.mph
% Version:            COMSOL 5.6.0.401
% Date:               Jan 27 2022, 13:07
% Table:              Tabella delle sonde 1 - 
% Tempo (s)                                       Temperatura (degC), Punto: (0, 0.5)               Temperatura (degC), Punto: (0.5*BILLETTA_r, 0.5)  Temperatura (degC), Punto: (BILLETTA_r-10*FUNZ_depth_billetta, 0.5)Temperatura (degC), Punto: (BILLETTA_r-5*FUNZ_depth_billetta, 0.5)Temperatura (degC), Punto: (BILLETTA_r-2*FUNZ_depth_billetta, 0.5)Temperatura (degC), Punto: (BILLETTA_r-FUNZ_depth_billetta, 0.5)Temperatura (degC), Punto: (BILLETTA_r-0.01[mm], 0.5)
0                                                 20                                                20                                                20.000000000023874                                20.00009263613549                                 20.110134381350008                                20.333899443109374                                20.55038028595976
5                                                 285.4183693121661                                 373.80535326384677                                580.3132891178842                                 658.1890424988445                                 700.2151757366584                                 708.5277117906869                                 711.5046396892958
10                                                608.489156755126                                  706.6925468065781                                 999.89596376672                                   1067.5281388716007                                1085.850193904098                                 1087.830216177229                                 1087.7564558940603
15                                                792.9692649787145                                 936.2216535488664                                 1100.2542495956714                                1114.0867479107737                                1116.2998613121786                                1115.9291721471382                                1115.0227956903927
20                                                1014.7511409529985                                1084.0056304811988                                1142.7576955684222                                1146.365383966459                                 1145.5601327760578                                1144.7017217522584                                1143.5806898500423
25                                                1143.8615564503357                                1171.261896862888                                 1192.7249159952157                                1192.2315628797555                                1189.9936530629166                                1188.847549302819                                 1187.5481620846485
30                                                1216.7472129903886                                1234.1408662604063                                1246.6520387868313                                1244.711354128468                                 1241.8040631610406                                1240.4753373391027                                1239.0232668512117
35                                                1271.5184948248707                                1286.6042654414869                                1295.8686936238228                                1293.1350448992644                                1289.7698619872244                                1288.2946146493941                                1286.7070146272767
40                                                1318.2612368445539                                1331.9407778941277                                1338.6740978009393                                1335.2765057630318                                1331.5135943257537                                1329.9073915047861                                1328.1964912042636
45                                                1357.8283019497417                                1369.3457015164386                                1373.429094142337                                 1369.4983152599416                                1365.4159850051396                                1363.7015664202327                                1361.886492310643
45.25816774565807                                 1359.6727889659874                                1371.0635326032066                                1375.00987293555                                  1371.05517479447                                  1366.9584456183943                                1365.2390391606118                                1363.4190866063914
