% Model:              batchmodel_BILLETTA_r_0.0131664_COIL_kr_1.9397_COIL_kw_3.7744_FUNZ_freq_8940.8_FUNZ_I_eff_85.0125.mph
% Version:            COMSOL 5.6.0.401
% Date:               Jan 27 2022, 12:53
% Table:              Tabella delle sonde 1 - 
% Tempo (s)                                       Temperatura (degC), Punto: (0, 0.5)               Temperatura (degC), Punto: (0.5*BILLETTA_r, 0.5)  Temperatura (degC), Punto: (BILLETTA_r-10*FUNZ_depth_billetta, 0.5)Temperatura (degC), Punto: (BILLETTA_r-5*FUNZ_depth_billetta, 0.5)Temperatura (degC), Punto: (BILLETTA_r-2*FUNZ_depth_billetta, 0.5)Temperatura (degC), Punto: (BILLETTA_r-FUNZ_depth_billetta, 0.5)Temperatura (degC), Punto: (BILLETTA_r-0.01[mm], 0.5)
0                                                 20                                                20                                                20.000000000198384                                20.00089750512484                                 20.19480384712392                                 20.515047871562388                                20.761810483408
5                                                 417.7254981167034                                 558.2104119359595                                 970.0716455178487                                 1092.0726992083669                                1123.7294089900533                                1127.268582547059                                 1127.6024894170887
10                                                745.1571526805682                                 935.5012332922905                                 1149.3349686415963                                1163.3579975076568                                1165.2173783672865                                1164.6984409572688                                1163.653177071381
15                                                1080.1739756809225                                1160.580331610353                                 1221.538001242538                                 1225.4665290454764                                1224.4882992306693                                1223.4813333628708                                1222.1686449423614
20                                                1257.9790072775254                                1297.6549219051994                                1335.1066942120865                                1336.0444217530085                                1333.6957794232476                                1332.3054874237523                                1330.6637361465814
23.79951770088322                                 1342.8969867279525                                1372.487538109438                                 1395.8484222342126                                1395.0821118065942                                1392.0493999483901                                1390.462070337434                                 1388.6372217058665
