% Model:              batchmodel_BILLETTA_r_0.0131664_COIL_kr_1.9397_COIL_kw_3.2356_FUNZ_freq_4639.7_FUNZ_I_eff_61.5962.mph
% Version:            COMSOL 5.6.0.401
% Date:               Jan 27 2022, 12:45
% Table:              Tabella delle sonde 1 - 
% Tempo (s)                                       Temperatura (degC), Punto: (0, 0.5)               Temperatura (degC), Punto: (0.5*BILLETTA_r, 0.5)  Temperatura (degC), Punto: (BILLETTA_r-10*FUNZ_depth_billetta, 0.5)Temperatura (degC), Punto: (BILLETTA_r-5*FUNZ_depth_billetta, 0.5)Temperatura (degC), Punto: (BILLETTA_r-2*FUNZ_depth_billetta, 0.5)Temperatura (degC), Punto: (BILLETTA_r-FUNZ_depth_billetta, 0.5)Temperatura (degC), Punto: (BILLETTA_r-0.01[mm], 0.5)
0                                                 20                                                19.999999999999943                                20.00000000000682                                 20.000022360851972                                20.053587979394933                                20.171846671586195                                20.29429566983788
5                                                 212.48835712901393                                269.7270029464762                                 366.36497500077576                                422.3088717464926                                 455.3791476759503                                 462.5690850243534                                 465.3071784985434
10                                                483.032955169278                                  559.1513441633189                                 688.4013149054109                                 768.8349146391882                                 814.4118963008758                                 822.8357888785907                                 825.5339406697143
15                                                684.2395050597382                                 769.5087299104185                                 969.4738401354808                                 1049.494997933869                                 1074.1305213046844                                1076.9562814663022                                1076.910675307443
20                                                836.6625222845797                                 962.4921177377138                                 1074.563362611249                                 1095.815833258001                                 1099.628589530878                                 1099.2611284798413                                1098.0707828805507
25                                                1029.0861221240893                                1081.9817968951215                                1117.42429452839                                  1121.9066544056695                                1120.7989070811177                                1119.6676087765582                                1118.170158784972
30                                                1119.398699160085                                 1140.1493418632263                                1151.754688353822                                 1150.908984023436                                 1148.0019650480658                                1146.5380827240683                                1144.8605729908109
35                                                1160.5989470165564                                1172.1436033447067                                1176.9558052466004                                1174.3558456346718                                1170.7548543501116                                1169.133553365958                                 1167.3444612770468
40                                                1189.0583331068328                                1196.523068085271                                 1197.8598404298727                                1194.2494965994829                                1190.20592249923                                  1188.47222674046                                  1186.594055174924
45                                                1209.3024420205143                                1215.0573150993878                                1214.7261164131587                                1210.5642964427275                                1206.2501089525153                                1204.4395924607247                                1202.494709616774
50                                                1228.0750008288774                                1232.4935692531094                                1230.7958393570489                                1226.162264389864                                 1221.6084443884233                                1219.7278310380634                                1217.7207373178935
55                                                1243.266179208419                                 1246.957324566698                                 1244.4329977442603                                1239.4801290796604                                1234.749669470386                                 1232.8140672037016                                1230.7561906159658
60                                                1257.9248040006664                                1260.9512141803089                                1257.6589451908085                                1252.4045200921473                                1247.5052960810372                                1245.5167429220664                                1243.4097327217432
65                                                1268.7429892866226                                1271.379782272185                                 1267.6051155713476                                1262.145700038494                                 1257.12502493094                                  1255.096893015324                                 1252.9523243247609
70                                                1279.5611745725787                                1281.8083503640605                                1277.5512859518876                                1271.886879984841                                 1266.744753780843                                 1264.677043108582                                 1262.4949159277785
75                                                1290.3793598585344                                1292.2369184559366                                1287.4974563324267                                1281.6280599311876                                1276.3644826307454                                1274.257193201839                                 1272.0375075307961
80                                                1300.3401909922409                                1301.8456292396281                                1296.6668521394504                                1290.6091619375652                                1285.23332207155                                  1283.0892977149597                                1280.8346657413313
85                                                1308.608276325353                                 1309.8356273689578                                1304.3025971279885                                1298.0895786814608                                1292.619617932638                                 1290.444473457036                                 1288.160052640751
90                                                1316.8763616584647                                1317.825625498288                                 1311.938342116527                                 1305.5699954253573                                1300.005913793725                                 1297.7996491991125                                1295.4854395401712
95                                                1325.1444469915768                                1325.8156236276172                                1319.5740871050657                                1313.0504121692534                                1307.3922096548126                                1305.154824941189                                 1302.8108264395905
100                                               1332.0637765700903                                1332.503397848765                                 1325.9655565994167                                1319.3110255300503                                1313.573012162752                                 1311.3091129232284                                1308.9396587840492
105                                               1338.097886358592                                 1338.336492213593                                 1331.5403791301287                                1324.771053543233                                 1318.962621328757                                 1316.6752303212738                                1314.283164527847
110                                               1344.131996147093                                 1344.1695865784209                                1337.1152016608407                                1330.2310815564147                                1324.352230494762                                 1322.0413477193192                                1319.6266702716443
115                                               1350.1661059355947                                1350.0026809432488                                1342.6900241915532                                1335.6911095695968                                1329.7418396607663                                1327.4074651173642                                1324.9701760154417
120                                               1355.1691685880392                                1354.8437428551088                                1347.3219824240473                                1340.22851888561                                  1334.2204502545828                                1331.8662960963584                                1329.4098815919938
125                                               1359.5389203068767                                1359.0754582327627                                1351.3747951954974                                1344.1992184091846                                1338.1394886076241                                1335.7678349894682                                1333.2944364797986
130                                               1363.394587488172                                 1362.8125419617013                                1354.9574917717086                                1347.7098962812993                                1341.60429915351                                  1339.2169969709462                                1336.7283527161198
135                                               1366.736170131925                                 1366.054994041925                                 1358.0700721526819                                1350.7605525019535                                1344.6148818922402                                1342.2137820407934                                1339.711630300957
140                                               1369.5636682381364                                1368.802814473433                                 1360.7125363384166                                1353.3511870711482                                1347.1712368238154                                1344.7581901990084                                1342.2442692343102
145                                               1372.2830828621004                                1371.4418784030654                                1363.246404985412                                 1355.8349319840408                                1349.622580636093                                 1347.1983909978758                                1344.673571472878
150                                               1374.6969046665668                                1373.7844672435922                                1365.4958073555595                                1358.0399973760086                                1351.799028163317                                 1349.3650086768498                                1346.830583319621
155                                               1376.755372701416                                 1375.7832867486472                                1367.4164341764567                                1359.9231021191645                                1353.6577781517512                                1351.2153703228983                                1348.6727381971446
160                                               1378.4584869666496                                1377.438336918231                                 1369.0082854481034                                1361.4842462135098                                1355.198830601396                                 1352.749475936022                                 1350.2000361054475
165                                               1379.8062474622666                                1378.749617752344                                 1370.2713611704994                                1362.7234296590445                                1356.4221855122505                                1353.9673255162197                                1351.4124770445296
170                                               1381.2291281490907                                1380.1282694410615                                1371.5924040513542                                1364.01794344074                                  1357.700017927747                                 1355.239519072155                                 1352.6792099590816
175                                               1382.5177142347293                                1381.3742825868721                                1372.7832734568196                                1365.1842449509581                                1358.8512740175788                                1356.3857689884603                                1353.820653139987
180                                               1383.6192452817081                                1382.4372663688077                                1373.7965688091485                                1366.1760920490988                                1359.8303386693474                                1357.3606531946634                                1354.7915623643958
185                                               1384.533721290029                                 1383.317220786867                                 1374.6322901083413                                1366.9934847351606                                1360.6372118830523                                1358.1641716907648                                1355.591937632309
190                                               1385.2611422596901                                1384.0141458410512                                1375.290437354397                                 1367.6364230091444                                1361.2718936586934                                1358.7963244767643                                1356.2217789437268
195                                               1386.071063444825                                 1384.7918282195355                                1376.0271508024584                                1368.3564643875989                                1361.982486909129                                 1359.5039242569633                                1356.92658161806
200                                               1386.832352970523                                 1385.521942310163                                 1376.7178246383855                                1369.0312324438478                                1362.6482957857897                                1360.1669028369179                                1357.5869183355935
205                                               1387.511973174985                                 1386.1721574673325                                1377.3310653909234                                1369.6298953835644                                1363.238911903008                                 1360.7550099635628                                1358.1727003066953
210                                               1388.1099240582116                                1386.7424736910448                                1377.8668730600707                                1370.1524532067492                                1363.754335260785                                 1361.2682456368984                                1358.6839275313646
215                                               1388.6262056202017                                1387.2328909812995                                1378.3252476458283                                1370.5989059134022                                1364.1945658591194                                1361.7066098569244                                1359.1206000096026
220                                               1389.1808482384959                                1387.7635775786193                                1378.8261715682916                                1371.0879092095906                                1364.676811256823                                 1362.1867007539067                                1359.5986649104734
225                                               1389.7154601429029                                1388.276074645929                                 1379.311276387365                                 1371.5617400683395                                1365.1440529142642                                1362.6517962599269                                1360.0617168423673
230                                               1390.215329978486                                 1388.7556539313064                                1379.7658566259474                                1372.005855619393                                 1365.5819254513262                                1363.0876056886227                                1360.4955449030676
235                                               1390.6804577452444                                1389.2023154347526                                1380.1899122840387                                1372.420255862753                                 1365.990428868009                                 1363.4941290399938                                1360.9001490925752
240                                               1391.1108434431785                                1389.6160591562666                                1380.5834433616396                                1372.8049407984172                                1366.3695631643118                                1363.8713663140402                                1361.2755294108906
245                                               1391.5470227841647                                1390.0362217892807                                1380.9838367946077                                1373.1965441275656                                1366.755639754952                                 1364.2555587232227                                1361.6578826770528
250                                               1391.9692761603756                                1390.4436670183882                                1381.3729047757279                                1373.5772444727745                                1367.1309940467913                                1364.6290758260411                                1362.0296000458497
