% Model:              batchmodel_BILLETTA_r_0.0131664_COIL_kr_2.7711_COIL_kw_5.8583_FUNZ_freq_6066_FUNZ_I_eff_61.5962.mph
% Version:            COMSOL 5.6.0.401
% Date:               Jan 27 2022, 13:55
% Table:              Tabella delle sonde 1 - 
% Tempo (s)                                       Temperatura (degC), Punto: (0, 0.5)               Temperatura (degC), Punto: (0.5*BILLETTA_r, 0.5)  Temperatura (degC), Punto: (BILLETTA_r-10*FUNZ_depth_billetta, 0.5)Temperatura (degC), Punto: (BILLETTA_r-5*FUNZ_depth_billetta, 0.5)Temperatura (degC), Punto: (BILLETTA_r-2*FUNZ_depth_billetta, 0.5)Temperatura (degC), Punto: (BILLETTA_r-FUNZ_depth_billetta, 0.5)Temperatura (degC), Punto: (BILLETTA_r-0.01[mm], 0.5)
0                                                 20                                                20                                                20.00000000002575                                 20.000113278034178                                20.14284105037325                                 20.33042994111264                                 20.521349492746253
5                                                 239.03050012567064                                310.39111206125256                                448.8533571714768                                 514.7329271723468                                 552.4595690606365                                 560.31808574997                                   563.2324037056011
10                                                541.4586346388446                                 630.135290770097                                  830.7534107088776                                 942.2729512686461                                 991.0610887469958                                 999.0995119771943                                 1001.3044658623827
15                                                727.4367657763775                                 847.3467722619965                                 1048.262264524395                                 1085.3180213706755                                1093.958191784644                                 1094.4115710651845                                1093.6475971547343
20                                                925.9582178508252                                 1021.8604371061664                                1104.7366692822793                                1114.7977642942992                                1115.6321833041043                                1114.9166030388424                                1113.7167267577174
25                                                1085.45179437364                                  1120.9445864287654                                1144.8367372139865                                1145.7346980053267                                1143.7283659428358                                1142.5375935297975                                1141.1176120339064
30                                                1163.382280650182                                 1178.0691246273277                                1185.815143418938                                 1183.6886757404764                                1180.5435190263038                                1179.107031627138                                 1177.5218458114346
35                                                1207.5654127248658                                1217.836278874352                                 1221.953287767245                                 1218.8682747971957                                1215.2306712249888                                1213.6504943500195                                1211.9392996093761
40                                                1241.5957681740588                                1250.7082671813118                                1253.07001852976                                  1249.3954636040312                                1245.4178472578278                                1243.7294752167159                                1241.9178109774862
45                                                1271.559301820892                                 1279.7094959334909                                1280.5520475330577                                1276.3602452758228                                1272.082104577441                                 1270.2971607060263                                1268.3951242741455
50                                                1298.1880307475712                                1305.406961675908                                 1304.8844444271954                                1300.2292540668946                                1295.6800281786454                                1293.8072382038022                                1291.822463020941
55                                                1322.0667539034644                                1328.227944332432                                 1326.399727758148                                 1321.316574311998                                 1316.517502674626                                 1314.563631067751                                 1312.5023519136116
60                                                1342.9385674294058                                1348.145720191233                                 1345.2228950307467                                1339.7819388178186                                1334.7680654039896                                1332.7430594690354                                1330.6138824098575
65                                                1360.8078198063513                                1365.1262302160635                                1361.2937174224612                                1355.5588203300072                                1350.3627682568508                                1348.2760237925136                                1346.0871381218526
69.1964450503107                                  1373.487767549122                                 1377.1106642973036                                1372.6573914508263                                1366.7250846482752                                1361.4013121007324                                1359.270003291168                                 1357.0373257250549
