% Model:              batchmodel_BILLETTA_r_0.0131664_COIL_kr_1.6756_COIL_kw_5.3284_FUNZ_freq_8940.8_FUNZ_I_eff_85.0125.mph
% Version:            COMSOL 5.6.0.401
% Date:               Jan 27 2022, 12:39
% Table:              Tabella delle sonde 1 - 
% Tempo (s)                                       Temperatura (degC), Punto: (0, 0.5)               Temperatura (degC), Punto: (0.5*BILLETTA_r, 0.5)  Temperatura (degC), Punto: (BILLETTA_r-10*FUNZ_depth_billetta, 0.5)Temperatura (degC), Punto: (BILLETTA_r-5*FUNZ_depth_billetta, 0.5)Temperatura (degC), Punto: (BILLETTA_r-2*FUNZ_depth_billetta, 0.5)Temperatura (degC), Punto: (BILLETTA_r-FUNZ_depth_billetta, 0.5)Temperatura (degC), Punto: (BILLETTA_r-0.01[mm], 0.5)
0                                                 20                                                20                                                20.000000000717137                                20.00255929429119                                 20.39081864155162                                 20.758360267930186                                21.081138678900572
5                                                 413.0015597902617                                 549.6614036710898                                 948.8382124765391                                 1074.5043918592537                                1110.10223177011                                  1114.4124182495761                                1115.048805422397
10                                                736.5575631950641                                 913.6176574441903                                 1144.4976103848749                                1159.7507176047561                                1161.9234891615902                                1161.4525379046913                                1160.4289455042926
15                                                1060.3314302216959                                1151.0412832819165                                1215.7732245179318                                1219.9484744475749                                1219.060450899175                                 1218.0749697485658                                1216.7788293195695
20                                                1249.9865508872808                                1290.9750929227616                                1329.6455464559467                                1330.761848262835                                 1328.4888621695168                                1327.1189633566482                                1325.4945485698686
24.720459616519364                                1352.316307224682                                 1378.5589700992737                                1399.0820233382497                                1398.1435659375275                                1395.0585508575673                                1393.459195268927                                 1391.6245583784753
