% Model:              batchmodel_BILLETTA_r_0.0131664_COIL_kr_1.6756_COIL_kw_4.5299_FUNZ_freq_6066_FUNZ_I_eff_127.5152.mph
% Version:            COMSOL 5.6.0.401
% Date:               Jan 27 2022, 12:32
% Table:              Tabella delle sonde 1 - 
% Tempo (s)                                       Temperatura (degC), Punto: (0, 0.5)               Temperatura (degC), Punto: (0.5*BILLETTA_r, 0.5)  Temperatura (degC), Punto: (BILLETTA_r-10*FUNZ_depth_billetta, 0.5)Temperatura (degC), Punto: (BILLETTA_r-5*FUNZ_depth_billetta, 0.5)Temperatura (degC), Punto: (BILLETTA_r-2*FUNZ_depth_billetta, 0.5)Temperatura (degC), Punto: (BILLETTA_r-FUNZ_depth_billetta, 0.5)Temperatura (degC), Punto: (BILLETTA_r-0.01[mm], 0.5)
0                                                 20                                                20                                                20.000000003808623                                20.02286042314131                                 20.520900215168297                                20.86913028153026                                 21.179626878464887
5                                                 527.4633097304373                                 714.9172770832904                                 1172.61931136348                                  1232.8758603663296                                1245.1359254206632                                1245.6693950423128                                1244.5807968078107
10                                                1032.5877804443276                                1207.9163638780956                                1299.4168360833664                                1309.654044641151                                 1309.739120176996                                 1308.5473800309474                                1306.7610241478606
12.743834722752538                                1244.7549979611413                                1328.5748948137166                                1389.019198815413                                 1394.66101627131                                  1393.2591623594794                                1391.709818461506                                 1389.6064328009052
