% Model:              batchmodel_BILLETTA_r_0.0131664_COIL_kr_2.7711_COIL_kw_4.5299_FUNZ_freq_6066_FUNZ_I_eff_61.5962.mph
% Version:            COMSOL 5.6.0.401
% Date:               Jan 27 2022, 13:44
% Table:              Tabella delle sonde 1 - 
% Tempo (s)                                       Temperatura (degC), Punto: (0, 0.5)               Temperatura (degC), Punto: (0.5*BILLETTA_r, 0.5)  Temperatura (degC), Punto: (BILLETTA_r-10*FUNZ_depth_billetta, 0.5)Temperatura (degC), Punto: (BILLETTA_r-5*FUNZ_depth_billetta, 0.5)Temperatura (degC), Punto: (BILLETTA_r-2*FUNZ_depth_billetta, 0.5)Temperatura (degC), Punto: (BILLETTA_r-FUNZ_depth_billetta, 0.5)Temperatura (degC), Punto: (BILLETTA_r-0.01[mm], 0.5)
0                                                 20                                                20                                                20.00000000002575                                 20.00011327801292                                 20.142841043976716                                20.330429932773995                                20.521349481717664
5                                                 239.1963496874979                                 310.5563721062588                                 447.62025570647825                                512.4365329169933                                 549.0043349915949                                 556.4458023021266                                 559.2010781386178
10                                                539.7118111372928                                 628.4816377145586                                 829.2671697088605                                 941.8836877238138                                 991.5134390764766                                 999.719506752817                                  1001.9846744281332
15                                                726.4681011424676                                 846.063063806157                                  1047.7795196018815                                1085.092296016035                                 1093.8100659071806                                1094.2750322912361                                1093.5152564901941
20                                                923.9367436196377                                 1020.4853064750133                                1104.3597754373127                                1114.5882558683397                                1115.4706850664538                                1114.7623496282367                                1113.5652260019056
25                                                1084.180168751344                                 1120.1910257739382                                1144.5130765537301                                1145.468216518328                                 1143.4790684742525                                1142.2912522860097                                1140.8728058990614
30                                                1162.7697848506095                                1177.5433035409314                                1185.3848886595742                                1183.280807500385                                 1180.1450080314075                                1178.7107595292996                                1177.127246900569
35                                                1207.3384687736516                                1217.5268416634299                                1221.59550948911                                  1218.505762543104                                 1214.8684375500234                                1213.2889510801724                                1211.5787404939224
40                                                1241.2872437223236                                1250.3929000538951                                1252.7563523764265                                1249.0851567851141                                1245.110317417466                                 1243.422981194804                                 1241.6123507695293
45                                                1271.318393544805                                 1279.4516619070005                                1280.2935340834501                                1276.1040988328755                                1271.827878891207                                 1270.043655555079                                 1268.1423459908988
50                                                1297.9707609033762                                1305.1751252982172                                1304.656285436242                                 1300.0041881055295                                1295.4568740165264                                1293.5847118400288                                1291.6005359059513
55                                                1321.9438269356751                                1328.078822097501                                 1326.2426471041272                                1321.1596291726792                                1316.3611100145877                                1314.407517543691                                 1312.3465660077768
60                                                1342.8458857991495                                1348.0278328463087                                1345.0940743901142                                1339.6524951042784                                1334.6389375902304                                1332.614179643966                                 1330.4853269619275
65                                                1360.7061754307538                                1365.0100642024167                                1361.1693706712695                                1355.434627016415                                 1350.239475924689                                 1348.153192461979                                 1345.9648430767043
69.80137416733132                                 1374.9940449434084                                1378.5253369845054                                1373.9931750347746                                1368.0384647415763                                1362.700412175901                                 1360.5641204499502                                1358.32654815041
