% Model:              batchmodel_BILLETTA_r_0.0131664_COIL_kr_1.6756_COIL_kw_3.7744_FUNZ_freq_6066_FUNZ_I_eff_85.0125.mph
% Version:            COMSOL 5.6.0.401
% Date:               Jan 27 2022, 12:26
% Table:              Tabella delle sonde 1 - 
% Tempo (s)                                       Temperatura (degC), Punto: (0, 0.5)               Temperatura (degC), Punto: (0.5*BILLETTA_r, 0.5)  Temperatura (degC), Punto: (BILLETTA_r-10*FUNZ_depth_billetta, 0.5)Temperatura (degC), Punto: (BILLETTA_r-5*FUNZ_depth_billetta, 0.5)Temperatura (degC), Punto: (BILLETTA_r-2*FUNZ_depth_billetta, 0.5)Temperatura (degC), Punto: (BILLETTA_r-FUNZ_depth_billetta, 0.5)Temperatura (degC), Punto: (BILLETTA_r-0.01[mm], 0.5)
0                                                 20                                                19.999999999999943                                20.000000000195598                                20.001117716206863                                20.262209497775416                                20.513169356499702                                20.7504521420762
5                                                 363.1204896647947                                 480.7452692774308                                 736.3375133316581                                 886.0889427935055                                 957.9341432538214                                 970.1396198200415                                 973.8740608362449
10                                                704.5490777330853                                 852.6415665925969                                 1110.138945830226                                 1140.5006736804708                                1145.8571154427736                                1145.6607619178144                                1144.5585565076094
15                                                994.6023589421756                                 1110.3018985311692                                1170.4305204145107                                1175.4933199538582                                1174.522000020056                                 1173.4213546981014                                1171.962954077605
20                                                1200.304013887051                                 1227.7464667105723                                1250.8235005017814                                1251.3889170227158                                1248.7935179636956                                1247.3136290600592                                1245.5655192458012
25                                                1287.1976919565736                                1311.0589591113317                                1328.3104110557415                                1327.1079922138715                                1323.5528443929634                                1321.778210419588                                 1319.761768935186
30                                                1353.8802563887416                                1367.254942671742                                 1375.0433259540414                                1373.3960918326748                                1369.744369926127                                 1367.878727397685                                 1365.7143934812152
32.606240635377326                                1384.9232313631605                                1390.1754427514838                                1391.45335686615                                  1389.9019553088337                                1386.435964608775                                 1384.5799581777906                                1382.3726046810934
