% Model:              batchmodel_BILLETTA_r_0.0131664_COIL_kr_1.4848_COIL_kw_5.3284_FUNZ_freq_6066_FUNZ_I_eff_127.5152.mph
% Version:            COMSOL 5.6.0.401
% Date:               Jan 27 2022, 12:11
% Table:              Tabella delle sonde 1 - 
% Tempo (s)                                       Temperatura (degC), Punto: (0, 0.5)               Temperatura (degC), Punto: (0.5*BILLETTA_r, 0.5)  Temperatura (degC), Punto: (BILLETTA_r-10*FUNZ_depth_billetta, 0.5)Temperatura (degC), Punto: (BILLETTA_r-5*FUNZ_depth_billetta, 0.5)Temperatura (degC), Punto: (BILLETTA_r-2*FUNZ_depth_billetta, 0.5)Temperatura (degC), Punto: (BILLETTA_r-FUNZ_depth_billetta, 0.5)Temperatura (degC), Punto: (BILLETTA_r-0.01[mm], 0.5)
0                                                 20                                                19.999999999999943                                20.00000000357113                                 20.022167165751625                                20.516790561513005                                20.85979035461071                                 21.165208230176233
5                                                 519.2076978145233                                 703.3896054256514                                 1160.3595311554723                                1223.9106003417141                                1236.9951184349507                                1237.6522426135448                                1236.621119334745
10                                                1028.7369433153403                                1206.495190772118                                 1294.760915304002                                 1304.7556313751888                                1304.8232212685866                                1303.6415156834983                                1301.8703507840455
12.802467941403357                                1259.1819134024                                   1333.8419445655636                                1390.6441149186207                                1396.070990531016                                 1394.617515430335                                 1393.058538595153                                 1390.9482611973854
