% Model:              batchmodel_BILLETTA_r_0.0131664_COIL_kr_1.9397_COIL_kw_4.5299_FUNZ_freq_6066_FUNZ_I_eff_85.0125.mph
% Version:            COMSOL 5.6.0.401
% Date:               Jan 27 2022, 12:56
% Table:              Tabella delle sonde 1 - 
% Tempo (s)                                       Temperatura (degC), Punto: (0, 0.5)               Temperatura (degC), Punto: (0.5*BILLETTA_r, 0.5)  Temperatura (degC), Punto: (BILLETTA_r-10*FUNZ_depth_billetta, 0.5)Temperatura (degC), Punto: (BILLETTA_r-5*FUNZ_depth_billetta, 0.5)Temperatura (degC), Punto: (BILLETTA_r-2*FUNZ_depth_billetta, 0.5)Temperatura (degC), Punto: (BILLETTA_r-FUNZ_depth_billetta, 0.5)Temperatura (degC), Punto: (BILLETTA_r-0.01[mm], 0.5)
0                                                 20                                                19.999999999999943                                20.000000000078273                                20.000388466368406                                20.125223857425226                                20.351429346521513                                20.52106302213474
5                                                 362.25619069201036                                481.8094222503415                                 738.7866106215575                                 887.4788727876013                                 959.1809532602616                                 971.2295074261248                                 974.9152633105203
10                                                697.6196861728425                                 841.3989813583152                                 1103.6448709226033                                1136.053735861623                                 1142.0781854134602                                1141.9872205294996                                1140.9281530589105
15                                                983.2733829797813                                 1103.832035511096                                 1168.0341562718986                                1173.50632249185                                  1172.6489918591242                                1171.5678851576845                                1170.1201769167214
20                                                1191.9021510958546                                1223.4381690811542                                1248.277427961908                                 1249.0554416392115                                1246.5289029011046                                1245.0633822967266                                1243.325401081967
25                                                1283.657183531945                                 1309.53265960846                                  1327.7563716260224                                1326.66569111432                                  1323.1421298150117                                1321.3725822153174                                1319.3584925338123
28.813964737365268                                1342.7044915071856                                1364.5851304192674                                1378.1784586331269                                1375.9938224513803                                1371.8915236619791                                1369.9331751804002                                1367.7370240604191
