% Model:              batchmodel_BILLETTA_r_0.0131664_COIL_kr_2.4069_COIL_kw_4.5299_FUNZ_freq_8940.8_FUNZ_I_eff_162.3068.mph
% Version:            COMSOL 5.6.0.401
% Date:               Jan 27 2022, 13:23
% Table:              Tabella delle sonde 1 - 
% Tempo (s)                                       Temperatura (degC), Punto: (0, 0.5)               Temperatura (degC), Punto: (0.5*BILLETTA_r, 0.5)  Temperatura (degC), Punto: (BILLETTA_r-10*FUNZ_depth_billetta, 0.5)Temperatura (degC), Punto: (BILLETTA_r-5*FUNZ_depth_billetta, 0.5)Temperatura (degC), Punto: (BILLETTA_r-2*FUNZ_depth_billetta, 0.5)Temperatura (degC), Punto: (BILLETTA_r-FUNZ_depth_billetta, 0.5)Temperatura (degC), Punto: (BILLETTA_r-0.01[mm], 0.5)
0                                                 20                                                20                                                20.0000001208669                                  20.110412135186436                                21.13034071923812                                 21.754157637570643                                22.262285557689324
4.211159040972326                                 560.5934311101843                                 864.552254107985                                  1364.405546195057                                 1392.3578896508634                                1397.123900984158                                 1396.66082209348                                  1395.2029431742235
