% Model:              batchmodel_BILLETTA_r_0.0445341_COIL_kr_1.4848_COIL_kw_3.2356_FUNZ_freq_4639.7_FUNZ_I_eff_85.0125.mph
% Version:            COMSOL 5.6.0.401
% Date:               Jan 26 2022, 17:41
% Table:              Tabella delle sonde 1 - 
% Tempo (s)                                       Temperatura (degC), Punto: (BILLETTA_r-0.01[mm], 0.5)Temperatura (degC), Punto: (0, 0.5)               Temperatura (degC), Punto: (BILLETTA_r-5*FUNZ_depth_billetta, 0.5)Temperatura (degC), Punto: (BILLETTA_r-2*FUNZ_depth_billetta, 0.5)Temperatura (degC), Punto: (BILLETTA_r-FUNZ_depth_billetta, 0.5)Temperatura (degC), Punto: (0.5*BILLETTA_r, 0.5)  Temperatura (degC), Punto: (BILLETTA_r-10*FUNZ_depth_billetta, 0.5)
0                                                 20.495162764939494                                20                                                20.000159883066488                                20.145292806995315                                20.316012669024303                                20                                                20.000000000033083
5                                                 484.1509716888912                                 20.798343348955882                                429.32308654970143                                471.9630883493519                                 480.8078597269392                                 36.23400205435729                                 355.13277503888344
10                                                784.0550074925774                                 35.062545251792585                                715.2189155979438                                 769.9746521378387                                 780.4678871913435                                 101.91418566353843                                611.7601874114372
15                                                1039.5412332761907                                72.82309242938845                                 970.8965474342348                                 1028.1877896269234                                1037.2192839680379                                185.34644853626287                                832.3868466188534
20                                                1112.2563576939892                                127.99329156856214                                1085.871609450277                                 1110.2546823267353                                1112.6048304890019                                269.6778269684312                                 990.6164545490793
25                                                1107.976278983846                                 190.95410581768544                                1095.2860416308326                                1108.5924035959142                                1109.0022404925044                                345.6040242843518                                 1033.5676766070947
30                                                1117.833745570178                                 253.2674036084769                                 1109.174339250094                                 1118.396216827056                                 1118.8080999036433                                413.4502953537366                                 1068.4169764703088
35                                                1122.6902811459317                                310.3731578274195                                 1117.4666400320907                                1123.8351528387593                                1123.8200399341995                                470.14959619700653                                1086.6764435893028
40                                                1126.2074640990345                                363.82071245459383                                1123.4672410578269                                1127.8241872332892                                1127.4654312717748                                521.0534988245028                                 1099.4369424212414
45                                                1131.0670592448523                                412.954518337541                                  1130.0510611222776                                1132.9858709766809                                1132.4100270116646                                566.3585308324683                                 1110.940710299708
50                                                1135.4086204402406                                458.4508197389515                                 1135.7675562309628                                1137.568647905966                                 1136.8201955514864                                607.5316598888002                                 1120.6252119238043
55                                                1139.827090937355                                 499.810069424954                                  1141.1975282968024                                1142.170558336304                                 1141.293011768073                                 644.0227811550302                                 1128.9183142571574
60                                                1144.621769977939                                 538.705780255146                                  1146.847980464771                                 1147.126078464145                                 1146.1371889524225                                677.8729885844925                                 1136.9290168878715
65                                                1150.0296017375986                                574.1097365145595                                 1152.9055403477664                                1152.66557602275                                  1151.5885297296777                                708.0156264551052                                 1144.6715655383578
70                                                1155.8782767808848                                606.3999379999216                                 1159.2611609017677                                1158.6255943977794                                1157.4765715172657                                735.6864687059789                                 1152.2525676078053
75                                                1161.8629360914779                                635.4805164117992                                 1165.7287032035551                                1164.7177663149755                                1163.4999304393264                                763.3176406329368                                 1159.9002489149352
80                                                1168.1362874653073                                661.3994934124106                                 1172.4014066299546                                1171.0865386449009                                1169.8095735493089                                789.6908594446971                                 1167.5002882165318
85                                                1174.8382413866584                                684.2217595673513                                 1179.4665629390029                                1177.8803936932277                                1176.5479053058953                                817.178415193352                                  1175.3644895635393
90                                                1181.9398342534496                                703.9338815407967                                 1186.8853998829977                                1185.0685933602363                                1183.6854458163034                                845.2892076912332                                 1183.4283047664148
95                                                1189.5217597342403                                720.9152394802967                                 1194.7503485572624                                1192.733784849418                                 1191.3034114345305                                873.314610463423                                  1191.819093389896
100                                               1197.7064261400965                                735.6652198263769                                 1203.2050924578016                                1201.0020054848424                                1199.5252071866876                                900.6419513728373                                 1200.7417336408748
105                                               1206.4245958185047                                748.0269136032485                                 1212.1685617972635                                1209.8019646245639                                1208.281014648816                                 927.6014238921583                                 1210.0813217253885
110                                               1215.8100023212583                                762.8193406142863                                 1221.8045993255632                                1219.2713498500075                                1217.7050776739798                                952.9671423840458                                 1220.095086693172
115                                               1225.8059643968068                                778.0000210925035                                 1232.0437623935059                                1229.3518040448503                                1227.7404987259765                                977.2586827608358                                 1230.6740053090039
120                                               1236.320032613407                                 797.3248952057121                                 1242.8060930320098                                1239.9537044681865                                1238.2958627217527                                1000.7591039203568                                1241.7679223698651
125                                               1247.3090201868717                                822.5485110824865                                 1254.0542397128957                                1251.0351847948596                                1249.3284660622803                                1023.600633863393                                 1253.3534083977383
130                                               1258.7533626659651                                852.0500846792762                                 1265.7642989184542                                1262.5755996461571                                1260.8183256025422                                1045.755402890541                                 1265.3972399854633
135                                               1270.3569488335356                                885.3833749752015                                 1277.64410522349                                  1274.279219166714                                 1272.469350064001                                 1067.6767091455586                                1277.6219983540677
140                                               1282.2584499598088                                922.7573602379122                                 1289.8304820520434                                1286.2845360319561                                1284.4202013794688                                1089.1522694532582                                1290.1576009542796
145                                               1293.7928227075831                                955.6562095073108                                 1301.652106864773                                 1297.923268876124                                 1296.0041536849967                                1109.910683439647                                 1302.3353371180383
150                                               1305.1777571527905                                986.6657154342994                                 1313.3235083585782                                1309.4120856385907                                1307.4384136966778                                1130.5473332750048                                1314.3640200673317
155                                               1316.5626915979983                                1017.675221361288                                 1324.994909852383                                 1320.9009024010575                                1318.8726737083584                                1151.183983110362                                 1326.3927030166255
160                                               1327.9476260432057                                1048.6847272882765                                1336.6663113461886                                1332.3897191635247                                1330.306933720039                                 1171.8206329457198                                1338.421385965919
165                                               1338.3475649228258                                1076.8687694558766                                1347.332600987178                                 1342.8860449486137                                1340.7526990313513                                1191.333745776165                                 1349.4304028466622
170                                               1347.4602015515097                                1101.360179915811                                 1356.6852981656475                                1352.0852726412368                                1349.9065890314655                                1209.378494924616                                 1359.1068061897345
175                                               1356.5728381801937                                1125.8515903757448                                1366.037995344117                                 1361.2845003338593                                1359.0604790315792                                1227.423244073067                                 1368.7832095328067
180                                               1365.6854748088776                                1150.3430008356786                                1375.3906925225865                                1370.483728026482                                 1368.214369031693                                 1245.467993221518                                 1378.459612875879
184.59386713426997                                1374.0579231918887                                1172.8450579524397                                1383.9837021595763                                1378.9357339780431                                1376.624719916142                                 1262.0470292333612                                1387.3500351350149
