% Model:              batchmodel_BILLETTA_r_0.0445341_COIL_kr_1.4848_COIL_kw_3.2356_FUNZ_freq_7167.5_FUNZ_I_eff_85.0125.mph
% Version:            COMSOL 5.6.0.401
% Date:               Jan 26 2022, 17:49
% Table:              Tabella delle sonde 1 - 
% Tempo (s)                                       Temperatura (degC), Punto: (BILLETTA_r-0.01[mm], 0.5)Temperatura (degC), Punto: (0, 0.5)               Temperatura (degC), Punto: (BILLETTA_r-5*FUNZ_depth_billetta, 0.5)Temperatura (degC), Punto: (BILLETTA_r-2*FUNZ_depth_billetta, 0.5)Temperatura (degC), Punto: (BILLETTA_r-FUNZ_depth_billetta, 0.5)Temperatura (degC), Punto: (0.5*BILLETTA_r, 0.5)  Temperatura (degC), Punto: (BILLETTA_r-10*FUNZ_depth_billetta, 0.5)
0                                                 20.748344604591693                                20                                                20.000498066911405                                20.23106963054289                                 20.494029787433078                                20                                                20.00000000009794
5                                                 644.7007395808856                                 20.691324607564468                                581.5950822574977                                 631.0789102903153                                 641.0430626860291                                 39.040720663805246                                490.6428702483232
10                                                1053.0417860063008                                36.19708254068695                                 979.6794141922181                                 1040.517152715824                                 1050.2921211714424                                116.50091296544741                                833.3423828717094
15                                                1134.12648688761                                  79.08973003132303                                 1112.3530278825674                                1132.4170365254195                                1134.3976216755614                                210.98123844092572                                1031.7571843509418
20                                                1125.2978917151581                                140.55232883101417                                1116.3180977591333                                1125.5412740753045                                1126.0396485684787                                300.82757174756375                                1075.788520903296
25                                                1134.518106128081                                 208.67025323947615                                1129.5499986987184                                1135.4198936834086                                1135.4357408605629                                379.0305098756934                                 1100.679041924323
30                                                1136.4897141097244                                273.61390183759806                                1133.4491509358531                                1137.6781629058205                                1137.4794499482286                                443.69515039327973                                1111.563475321816
35                                                1141.0538176131558                                333.3448133888879                                 1139.5899419193702                                1142.5100272514292                                1142.117265866496                                 499.8703760542195                                 1122.4289285994619
40                                                1147.1184848673029                                388.5556121475255                                 1146.954260516768                                 1148.8078633901205                                1148.2496406684181                                550.3404559583533                                 1133.4565184108033
45                                                1154.1531440565223                                438.2798580749326                                 1154.96824898172                                  1156.0287515979107                                1155.3418659604422                                594.6868108129049                                 1144.110398463798
50                                                1161.8383659346632                                483.24629604699146                                1163.3929937769703                                1163.8639636247963                                1163.076652212188                                 634.0275299599488                                 1154.452055390756
55                                                1170.1633304052702                                525.0159999344858                                 1172.3245998143025                                1172.319927926495                                 1171.4475212222146                                670.1410409310779                                 1164.8960699783884
60                                                1179.3742529270544                                562.8820717541205                                 1181.992847129306                                 1181.6411873211391                                1180.7007048676583                                702.3729626579432                                 1175.6186179241831
65                                                1189.3382034715369                                597.2691808596733                                 1192.3282994366027                                1191.7042131393628                                1190.7052282020409                                732.3103436314454                                 1186.7378953496968
70                                                1200.0089261063417                                628.1909194580077                                 1203.3410326785952                                1202.4712711468928                                1201.416689155808                                 761.3425454762308                                 1198.4283388635267
75                                                1211.5104681146336                                655.7077145327175                                 1215.1354797840754                                1214.0637031934725                                1212.9586434137796                                789.551081512593                                  1210.735279791943
80                                                1224.2164804670342                                680.0793462352038                                 1228.13172842424                                  1226.8631836209443                                1225.7068572834432                                820.2377243415784                                 1224.2071521690323
85                                                1237.955519523718                                 701.1921770486161                                 1242.138352373548                                 1240.694853101159                                 1239.4890024730298                                851.9015547494599                                 1238.5969900570726
90                                                1252.5527746098005                                719.1699168359961                                 1257.0172394601877                                1255.3918707118805                                1254.1330703290423                                883.617558392852                                  1253.854440650347
95                                                1268.075954898447                                 733.9646492298526                                 1272.8218844776775                                1271.0188587131752                                1269.7056847216395                                915.7440197781153                                 1269.9990070303684
100                                               1283.9888709273882                                748.6022902723556                                 1289.0342242500697                                1287.04182389145                                  1285.6709158148587                                946.9208740766943                                 1286.5720374360212
105                                               1300.300271188431                                 763.0334689788666                                 1305.6627115198544                                1303.4694789044174                                1302.0375078644324                                977.1703121685822                                 1303.5810152504328
110                                               1316.690629611624                                 780.8405206867077                                 1322.381857020815                                 1319.9796617554093                                1318.4846249682255                                1006.7243788405516                                1320.69955294898
115                                               1332.8712471603449                                804.9144966677007                                 1338.900831130702                                 1336.282058212409                                 1334.7226691757296                                1035.5901763345796                                1337.6430626156757
120                                               1348.6915197718927                                834.2406211569838                                 1355.0638731884446                                1352.2243319170225                                1350.6002813365626                                1063.8981026848533                                1354.2511918681398
125                                               1363.3410566282078                                870.9712837852029                                 1370.045051085463                                 1366.9894553219065                                1365.3038710164342                                1091.9675312629697                                1369.6969811892063
129.39147477209997                                1375.5645564321335                                908.4825319321945                                 1382.556836294419                                 1379.3118248413416                                1377.5734076558283                                1116.296921972415                                 1382.6333457448713
