% Model:              batchmodel_BILLETTA_r_0.0445341_COIL_kr_1.4848_COIL_kw_3.2356_FUNZ_freq_6066_FUNZ_I_eff_162.3068.mph
% Version:            COMSOL 5.6.0.401
% Date:               Jan 26 2022, 17:46
% Table:              Tabella delle sonde 1 - 
% Tempo (s)                                       Temperatura (degC), Punto: (BILLETTA_r-0.01[mm], 0.5)Temperatura (degC), Punto: (0, 0.5)               Temperatura (degC), Punto: (BILLETTA_r-5*FUNZ_depth_billetta, 0.5)Temperatura (degC), Punto: (BILLETTA_r-2*FUNZ_depth_billetta, 0.5)Temperatura (degC), Punto: (BILLETTA_r-FUNZ_depth_billetta, 0.5)Temperatura (degC), Punto: (0.5*BILLETTA_r, 0.5)  Temperatura (degC), Punto: (BILLETTA_r-10*FUNZ_depth_billetta, 0.5)
0                                                 21.34287484806117                                 20                                                20.033412885062546                                20.6002165196889                                  20.990696581545876                                20                                                20.00000000674038
5                                                 1284.4853517048127                                21.161093028062737                                1253.0415562255826                                1281.9820014105494                                1284.8690051545868                                60.47644966597272                                 1132.0939488409026
10                                                1348.6479178672794                                49.07418932177478                                 1341.5045275238622                                1350.2241205348046                                1350.1605766959033                                185.38485887148124                                1298.138139631555
15                                                1373.9696394301645                                115.37295918049159                                1372.5777727075138                                1376.5366653142096                                1375.7735086390112                                308.57975918857335                                1347.43426646208
16.828105611336447                                1385.0106136385407                                144.38722017315644                                1384.898078871288                                 1387.8237362882983                                1386.896087155048                                 350.4143729980409                                 1363.4283623803185
