% Model:              batchmodel_BILLETTA_r_0.0445341_COIL_kr_1.4848_COIL_kw_3.2356_FUNZ_freq_6066_FUNZ_I_eff_127.5152.mph
% Version:            COMSOL 5.6.0.401
% Date:               Jan 26 2022, 17:46
% Table:              Tabella delle sonde 1 - 
% Tempo (s)                                       Temperatura (degC), Punto: (BILLETTA_r-0.01[mm], 0.5)Temperatura (degC), Punto: (0, 0.5)               Temperatura (degC), Punto: (BILLETTA_r-5*FUNZ_depth_billetta, 0.5)Temperatura (degC), Punto: (BILLETTA_r-2*FUNZ_depth_billetta, 0.5)Temperatura (degC), Punto: (BILLETTA_r-FUNZ_depth_billetta, 0.5)Temperatura (degC), Punto: (0.5*BILLETTA_r, 0.5)  Temperatura (degC), Punto: (BILLETTA_r-10*FUNZ_depth_billetta, 0.5)
0                                                 21.019998388473084                                20                                                20.006939226148745                                20.402651217690106                                20.72324575023316                                 20                                                20.00000000099743
5                                                 1136.8864474677225                                20.855835962317542                                1062.743233751597                                 1126.7921309495187                                1135.1212569211211                                50.850681026832376                                857.5265023392614
10                                                1227.8562123767033                                42.953896330620125                                1212.637188174559                                 1227.6821387974492                                1228.7277227228738                                159.33684325544357                                1146.9598776857292
15                                                1236.2083140873533                                98.84853171760807                                 1231.8244182090348                                1237.763165086399                                 1237.5219275179911                                271.8508027848152                                 1200.2632539883334
20                                                1245.024916144932                                 175.73523770263648                                1243.9741592465311                                1247.1150140140826                                1246.4839926273075                                371.7030515682609                                 1223.7267108599663
25                                                1254.28129847452                                  256.08034359950545                                1255.875287335044                                 1256.848662223616                                 1255.8763714771976                                457.7405548174412                                 1242.600904072914
30                                                1278.971170879659                                 328.4690549714343                                 1280.6973338591501                                1281.6416128505384                                1280.6319808209428                                529.5141298910921                                 1267.8345683164239
35                                                1309.875236098242                                 392.58970014622673                                1312.1152362164162                                1312.753924073868                                 1311.6414737752461                                590.5189586813141                                 1300.0455687649091
40                                                1342.7116049832152                                450.6221039803153                                 1345.5913305159056                                1345.8354008323486                                1344.598155299654                                 646.1234369714381                                 1334.3906383069752
42.45569537893994                                 1359.575108192405                                 477.56432448015937                                1362.7991979207432                                1362.829223744653                                 1361.5251952198087                                672.2350675676132                                 1352.0423221407736
