% Model:              batchmodel_BILLETTA_r_0.0445341_COIL_kr_1.4848_COIL_kw_3.7744_FUNZ_freq_4639.7_FUNZ_I_eff_174.7421.mph
% Version:            COMSOL 5.6.0.401
% Date:               Jan 26 2022, 18:04
% Table:              Tabella delle sonde 1 - 
% Tempo (s)                                       Temperatura (degC), Punto: (BILLETTA_r-0.01[mm], 0.5)Temperatura (degC), Punto: (0, 0.5)               Temperatura (degC), Punto: (BILLETTA_r-5*FUNZ_depth_billetta, 0.5)Temperatura (degC), Punto: (BILLETTA_r-2*FUNZ_depth_billetta, 0.5)Temperatura (degC), Punto: (BILLETTA_r-FUNZ_depth_billetta, 0.5)Temperatura (degC), Punto: (0.5*BILLETTA_r, 0.5)  Temperatura (degC), Punto: (BILLETTA_r-10*FUNZ_depth_billetta, 0.5)
0                                                 21.124232717195525                                20                                                20.034624027570885                                20.51021530460156                                 20.826844109384524                                20                                                20.000000006664436
5                                                 1304.9428546361023                                20.9191655964226                                  1265.4087024511832                                1301.715636643357                                 1305.343545143462                                 58.79198908195883                                 1106.346391882401
10                                                1358.5971373820516                                43.23960800757561                                 1351.2033681071016                                1360.5889150370176                                1360.405149796803                                 186.54946408684282                                1302.975860173418
15                                                1390.109074383135                                 109.43423862891547                                1389.7733746260983                                1393.3615352683523                                1392.2984049639085                                316.3859051887164                                 1362.9615577392315
15.991858589016894                                1394.5115367488493                                126.44478185992847                                1394.8037835259938                                1397.8883711716435                                1396.7419778815602                                340.28517956489304                                1369.7045701815919
