% Model:              batchmodel_BILLETTA_r_0.0445341_COIL_kr_1.4848_COIL_kw_3.2356_FUNZ_freq_6066_FUNZ_I_eff_85.0125.mph
% Version:            COMSOL 5.6.0.401
% Date:               Jan 26 2022, 17:44
% Table:              Tabella delle sonde 1 - 
% Tempo (s)                                       Temperatura (degC), Punto: (BILLETTA_r-0.01[mm], 0.5)Temperatura (degC), Punto: (0, 0.5)               Temperatura (degC), Punto: (BILLETTA_r-5*FUNZ_depth_billetta, 0.5)Temperatura (degC), Punto: (BILLETTA_r-2*FUNZ_depth_billetta, 0.5)Temperatura (degC), Punto: (BILLETTA_r-FUNZ_depth_billetta, 0.5)Temperatura (degC), Punto: (0.5*BILLETTA_r, 0.5)  Temperatura (degC), Punto: (BILLETTA_r-10*FUNZ_depth_billetta, 0.5)
0                                                 20.639243193743596                                20                                                20.000322793098235                                20.193450602137034                                20.416355395953758                                20                                                20.000000000061448
5                                                 540.5079884733581                                 20.636504623286214                                484.92992425504553                                528.2866392462697                                 537.1743389486959                                 36.68917213202468                                 407.6398026879558
10                                                917.6972883430127                                 34.09598525883007                                 835.500730929031                                  901.8115470867859                                 913.8273238736584                                 106.46941425700561                                709.0795338609688
15                                                1121.1367526233057                                73.73782163603471                                 1085.0905563812844                                1117.5059164950594                                1120.998196322656                                 196.40209213950897                                970.8515856660052
20                                                1123.5400402292098                                131.5591827133793                                 1110.4985385940345                                1123.2335773864615                                1124.2000150619383                                285.29489244727097                                1057.2949102373218
25                                                1122.6952849634                                   197.97309472780807                                1115.8487113308593                                1123.3716830871836                                1123.5989179681678                                366.37004447618324                                1081.5909985291482
30                                                1129.224710584912                                 265.59148360877793                                1124.9567166718407                                1130.3394364570836                                1130.2487074277783                                437.28419776352473                                1098.4623490211125
35                                                1134.7568377795374                                329.5773437966918                                 1132.3143481190755                                1136.1748230472176                                1135.8648287225706                                498.30940509604704                                1111.6885535940592
40                                                1136.3359049718592                                387.8035071594303                                 1135.8853637584793                                1138.076260971955                                 1137.5267985806317                                550.8314131461171                                 1121.2984720178542
45                                                1139.1628296684667                                439.7396101746448                                 1140.4266179431488                                1141.198307837472                                 1140.432902481386                                 596.1358004735281                                 1130.4677683980335
50                                                1151.496336468364                                 485.8802122459299                                 1153.1046630623946                                1153.6493400477575                                1152.8172781999137                                635.7931216756092                                 1143.3291885175745
55                                                1159.3189253621213                                527.479278962258                                  1161.441667599484                                 1161.58901323571                                  1160.6825442292693                                671.1111654284376                                 1152.921489679838
60                                                1165.8089166120517                                564.9626161783876                                 1168.3659735592482                                1168.1757180106906                                1167.2077883963675                                702.440728677985                                  1160.9724659745575
65                                                1172.410288147431                                 598.7821509761528                                 1175.3704898328465                                1174.8694573434195                                1173.8436204800555                                731.4648820245992                                 1168.9894753836788
70                                                1180.5309656661534                                629.3344161803551                                 1183.9163946939398                                1183.0943090460692                                1182.0045487836614                                759.8794528550485                                 1178.4870464744163
75                                                1189.7365808792674                                656.4902881764306                                 1193.5537434217154                                1192.4110027449342                                1191.2541920747622                                787.169678442507                                  1189.0048157514584
80                                                1199.7961881177375                                680.4859219053975                                 1203.9587921633215                                1202.568456249684                                 1201.3551743064345                                816.6649260872094                                 1200.0705035615465
85                                                1210.811976125401                                 701.2168236269122                                 1215.2747909644777                                1213.6777683037458                                1212.4125295334557                                846.8920187271871                                 1211.893084009751
90                                                1222.710967213287                                 719.1790496492122                                 1227.445168985761                                 1225.6685878042945                                1224.3539008246094                                877.3476876271255                                 1224.463870201259
95                                                1235.3671414404216                                735.2261567694396                                 1240.3719074303049                                1238.4193654716123                                1237.0543209996945                                907.1741203593957                                 1237.7668450640303
100                                               1248.8556733758473                                748.8489734716945                                 1254.1134773682888                                1252.002608994956                                 1250.5883366252597                                936.8830270475609                                 1251.8115632485333
105                                               1262.697873833626                                 765.4802778287266                                 1268.2291216559297                                1265.945767301243                                 1264.4787285813568                                965.6062021607935                                 1266.2597361152257
110                                               1276.9251006900158                                784.7641804919853                                 1282.7477133247917                                1280.2797961724518                                1278.7567584434528                                993.4005199348229                                 1281.1335242092164
115                                               1291.530403414435                                 806.5323598758588                                 1297.655089914565                                 1294.9962378319283                                1293.4149768072266                                1020.469348455801                                 1296.4023787555157
120                                               1305.9615058014874                                835.6449074594201                                 1312.3985294135646                                1309.5408063568052                                1307.899840845762                                 1047.0410019297278                                1311.5300040897641
125                                               1320.4921677581438                                869.6927058876535                                 1327.252012712188                                 1324.1882578586033                                1322.4857383225008                                1073.002306413594                                 1326.7822386633557
130                                               1334.7471056213067                                907.057132060498                                  1341.831278589485                                 1338.559915247797                                 1336.7958119953                                   1098.5522400944624                                1341.7704458675003
135                                               1348.5101026937373                                946.8056291544555                                 1355.9149379996752                                1352.437606731507                                 1350.6129385618701                                1123.805442672005                                 1356.27071581152
140                                               1361.9669590155281                                989.7395649519739                                 1369.693235702332                                 1366.0088124090116                                1364.1236971291228                                1148.6634015842073                                1370.4754594756778
145                                               1373.2799607647185                                1028.0663792261353                                1381.2859186468945                                1377.4191209087235                                1375.482403165422                                 1173.2081625725223                                1382.4725023602928
150                                               1383.2038330738987                                1064.9863749730885                                1391.4651822731153                                1387.4301148293994                                1385.4470552700132                                1197.4060305194857                                1393.0471496285322
153.13915402856907                                1388.7407860051453                                1087.516062178037                                 1397.1504425932767                                1393.0167087581885                                1391.0071652333845                                1212.42020756205                                  1398.9763399878861
