% Model:              batchmodel_BILLETTA_r_0.0445341_COIL_kr_1.4848_COIL_kw_3.7744_FUNZ_freq_6066_FUNZ_I_eff_85.0125.mph
% Version:            COMSOL 5.6.0.401
% Date:               Jan 26 2022, 18:06
% Table:              Tabella delle sonde 1 - 
% Tempo (s)                                       Temperatura (degC), Punto: (BILLETTA_r-0.01[mm], 0.5)Temperatura (degC), Punto: (0, 0.5)               Temperatura (degC), Punto: (BILLETTA_r-5*FUNZ_depth_billetta, 0.5)Temperatura (degC), Punto: (BILLETTA_r-2*FUNZ_depth_billetta, 0.5)Temperatura (degC), Punto: (BILLETTA_r-FUNZ_depth_billetta, 0.5)Temperatura (degC), Punto: (0.5*BILLETTA_r, 0.5)  Temperatura (degC), Punto: (BILLETTA_r-10*FUNZ_depth_billetta, 0.5)
0                                                 20.637580492439895                                20                                                20.000317934255236                                20.19262527952361                                 20.415058798562768                                20                                                20.000000000060595
5                                                 557.5837735806132                                 20.62026156761317                                 499.17556396796454                                544.8730945315356                                 554.134340070251                                  36.592299710708744                                417.4086497862297
10                                                936.8460621139781                                 34.81112315392653                                 855.9685992413855                                 921.4718400350572                                 933.1339313975769                                 107.7233815151933                                 724.2531055781229
15                                                1108.9199292921126                                75.32816118131007                                 1075.045503193939                                 1105.3968905777388                                1108.7723594320655                                198.35236652815416                                967.4381468844418
20                                                1114.3981692142743                                135.47455855313575                                1098.6591631644765                                1113.620849379713                                 1114.9257776280865                                284.47130066667853                                1038.629001583448
25                                                1123.5914930110398                                200.43290958270558                                1115.408445046693                                 1124.0639791755689                                1124.446098973685                                 362.3001601818462                                 1076.8407826912176
30                                                1146.9245354797654                                264.03001503124403                                1142.6293971520931                                1148.149914847921                                 1148.0088135131527                                430.705943204347                                  1113.5814530796642
35                                                1137.2944880273267                                323.3290718105018                                 1135.0564603753164                                1138.7743096636077                                1138.4236306791777                                487.93993106483697                                1114.1377614541934
40                                                1137.6048730301559                                377.96998531187717                                1136.6216495975855                                1139.2823141777776                                1138.7835476186383                                538.5725205674546                                 1119.6734487286458
45                                                1142.1402323116058                                428.0711312805995                                 1142.3136793397957                                1144.021392693769                                 1143.3773434244358                                583.8643294630273                                 1128.69889188069
50                                                1148.617350770991                                 473.51482181548226                                1149.7628536524026                                1150.682646053327                                 1149.911442715098                                 623.9150865436807                                 1138.7939728179626
55                                                1155.173113152946                                 515.3691645021286                                 1157.0647758297769                                1157.3873529186535                                1156.5156146368868                                659.9696885528506                                 1148.0403073092452
60                                                1161.6216577244877                                553.167703961304                                  1163.9924322715433                                1163.9422663030982                                1163.0018453191556                                691.5140844282481                                 1156.0949461102837
65                                                1168.6318969785589                                587.6299936069128                                 1171.4428391722327                                1171.0542206488421                                1170.0496362355489                                720.6069813440616                                 1164.5795190207168
70                                                1176.2697701680918                                618.8045844246403                                 1179.5031124496759                                1178.7926861432106                                1177.7259192018678                                747.4275780694525                                 1173.6485890355611
75                                                1184.7149181544737                                646.7771417220918                                 1188.3320569516363                                1187.3359892457643                                1186.2104119984197                                774.4665716970909                                 1183.3390605010372
80                                                1194.08573886678                                  671.6169470047964                                 1198.0559417190102                                1196.8046695729854                                1195.62228600047                                  802.8146320782317                                 1193.7809464269312
85                                                1204.3417803950042                                693.2291770837123                                 1208.6299001948087                                1207.1553583667396                                1205.9195602530476                                831.7616329586552                                 1204.9421354152414
90                                                1215.5253280827314                                711.5842664256465                                 1220.0977118986507                                1218.429438011342                                 1217.1438309463201                                861.4395057472449                                 1216.8784562332712
95                                                1227.559249436748                                 727.2576101893146                                 1232.3957036614347                                1230.553248460376                                 1229.2193490644045                                891.2144704809847                                 1229.559213534185
100                                               1240.3768077216423                                740.9713165399312                                 1245.4757445808668                                1243.4638424401592                                1242.0806292454045                                920.3690977983321                                 1242.9884445305006
105                                               1253.8635762213175                                753.7922965305844                                 1259.2237490649072                                1257.04664685744                                  1255.6131381072505                                948.9964371683103                                 1257.0534078831834
110                                               1267.707268016752                                 768.740485611684                                  1273.3483026561375                                1270.9931731914462                                1269.5057207233044                                976.5143981676875                                 1271.5220258621785
115                                               1281.9458799324611                                785.9571969009679                                 1287.8789111570682                                1285.3394133006                                   1283.795615412867                                 1003.294886662681                                 1286.4030328015328
120                                               1296.2108043954845                                810.7615176574562                                 1302.451079638401                                 1299.715922504086                                 1298.1134099414594                                1029.6891473052337                                1301.3552368246278
125                                               1310.6124769066969                                840.9808496599761                                 1317.1718998561669                                1314.2329435534562                                1312.5696308133179                                1055.5945125893886                                1316.4738658010988
130                                               1324.858456989235                                 877.2348592666682                                 1331.7390637404606                                1328.594613738188                                 1326.8702659567653                                1081.3056041200093                                1331.444740375142
135                                               1338.8028715373825                                918.5606972943286                                 1346.0055008284153                                1342.6543719353062                                1340.8690865039575                                1106.5779246350226                                1346.1229384983053
140                                               1349.9849176756188                                955.0398513179306                                 1357.458645164435                                 1353.931081203787                                 1352.0956023120452                                1130.3786559208916                                1357.9656913460144
145                                               1361.166963813855                                 991.5190053415325                                 1368.9117895004542                                1365.2077904722678                                1363.3221181201325                                1154.17938720676                                  1369.808444193724
150                                               1372.3490099520918                                1027.9981593651346                                1380.364933836474                                 1376.484499740749                                 1374.5486339282197                                1177.9801184926291                                1381.651197041433
153.44188579444057                                1380.0464751032869                                1053.1095757705434                                1388.249016794839                                 1384.2471288285933                                1382.276710984403                                 1194.363998274655                                 1389.8034776001532
