% Model:              batchmodel_BILLETTA_r_0.0445341_COIL_kr_1.4848_COIL_kw_3.7744_FUNZ_freq_4639.7_FUNZ_I_eff_127.5152.mph
% Version:            COMSOL 5.6.0.401
% Date:               Jan 26 2022, 18:02
% Table:              Tabella delle sonde 1 - 
% Tempo (s)                                       Temperatura (degC), Punto: (BILLETTA_r-0.01[mm], 0.5)Temperatura (degC), Punto: (0, 0.5)               Temperatura (degC), Punto: (BILLETTA_r-5*FUNZ_depth_billetta, 0.5)Temperatura (degC), Punto: (BILLETTA_r-2*FUNZ_depth_billetta, 0.5)Temperatura (degC), Punto: (BILLETTA_r-FUNZ_depth_billetta, 0.5)Temperatura (degC), Punto: (0.5*BILLETTA_r, 0.5)  Temperatura (degC), Punto: (BILLETTA_r-10*FUNZ_depth_billetta, 0.5)
0                                                 20.78603713396285                                 20                                                20.00443855891791                                 20.303405296191215                                20.54826417416257                                 20                                                20.000000000534044
5                                                 1002.0906566400309                                20.896768644452152                                881.7074479956028                                 980.2747912114638                                 996.9233089580981                                 47.95881504592825                                 683.9845270400192
10                                                1221.0095596471915                                41.19956143924668                                 1194.7909160276417                                1219.45162550011                                  1221.6664721518923                                149.30173587472166                                1087.7592567098382
15                                                1231.173060751929                                 93.57432615297182                                 1222.7960307200237                                1232.4202976844613                                1232.5438114458143                                260.029845064086                                  1175.797559481135
20                                                1214.2898945380912                                168.2403252222581                                 1212.3544110474286                                1216.4760511074273                                1215.8622084127855                                360.09540833414474                                1186.4433930760115
25                                                1236.8918631957913                                246.76926120955648                                1236.7410801475935                                1239.450909694382                                 1238.5982736765104                                445.9603472632432                                 1215.5724143507173
30                                                1251.4894928898434                                320.2620148467212                                 1253.2272167581577                                1254.410188861781                                 1253.313168133407                                 519.453479809246                                  1237.9226237630842
35                                                1271.002722130846                                 387.46257404016524                                1274.0762863479085                                1274.2265162890862                                1272.9395601015544                                582.9493687362265                                 1262.1573516712383
40                                                1289.3368453826865                                447.55006638786404                                1292.706790859846                                 1292.6828914372004                                1291.3393788859698                                638.5500234070328                                 1281.5382764668857
45                                                1310.3966436661535                                501.1911245935761                                 1314.3852396909456                                1313.944028462297                                 1312.491939421468                                 689.0149343764234                                 1304.3483499845752
50                                                1334.632035633104                                 549.6957328905496                                 1339.2503070170233                                1338.4020622943995                                1336.8331400090751                                736.5173151612637                                 1330.1433044584937
55                                                1361.0382918011423                                593.8662150509656                                 1366.2903793074238                                1365.043480994023                                 1363.3541961675578                                786.9008403355414                                 1358.0533111195205
57.13550208925924                                 1373.0074784638168                                611.3853367363972                                 1378.532170731738                                 1377.1172587705692                                1375.3752932708794                                809.1255346874112                                 1370.645117919153
