% Model:              batchmodel_BILLETTA_r_0.0445341_COIL_kr_1.4848_COIL_kw_3.7744_FUNZ_freq_4639.7_FUNZ_I_eff_162.3068.mph
% Version:            COMSOL 5.6.0.401
% Date:               Jan 26 2022, 18:03
% Table:              Tabella delle sonde 1 - 
% Tempo (s)                                       Temperatura (degC), Punto: (BILLETTA_r-0.01[mm], 0.5)Temperatura (degC), Punto: (0, 0.5)               Temperatura (degC), Punto: (BILLETTA_r-5*FUNZ_depth_billetta, 0.5)Temperatura (degC), Punto: (BILLETTA_r-2*FUNZ_depth_billetta, 0.5)Temperatura (degC), Punto: (BILLETTA_r-FUNZ_depth_billetta, 0.5)Temperatura (degC), Punto: (0.5*BILLETTA_r, 0.5)  Temperatura (degC), Punto: (BILLETTA_r-10*FUNZ_depth_billetta, 0.5)
0                                                 21.033592021805987                                20                                                20.024216773863202                                20.45374236134586                                 20.75181543510223                                 20                                                20.000000003671516
5                                                 1257.932715250574                                 20.877153038482163                                1206.938382326185                                 1252.8863070633956                                1257.807809388044                                 55.742609560563324                                1010.1876235193232
10                                                1320.04813303344                                  41.71844717592654                                 1310.4780435878206                                1321.515594320907                                 1321.645902611359                                 176.85063062724925                                1256.5663639123068
15                                                1345.1606791355675                                104.98273683934832                                1343.3888002754566                                1347.9734263132245                                1347.145064998586                                 302.4288334130713                                 1313.591598467171
20                                                1371.6004018469575                                190.94349153574933                                1372.3602732615277                                1374.9271530313567                                1373.7679004899483                                412.56400346365535                                1350.448765871518
22.267434711420723                                1382.3732581044637                                230.1770120749976                                 1384.2312404451477                                1385.9210817528942                                1384.6185213537315                                457.44572048327325                                1365.4095159487501
