% Model:              batchmodel_BILLETTA_r_0.0445341_COIL_kr_1.4848_COIL_kw_3.2356_FUNZ_freq_4639.7_FUNZ_I_eff_127.5152.mph
% Version:            COMSOL 5.6.0.401
% Date:               Jan 26 2022, 17:41
% Table:              Tabella delle sonde 1 - 
% Tempo (s)                                       Temperatura (degC), Punto: (BILLETTA_r-0.01[mm], 0.5)Temperatura (degC), Punto: (0, 0.5)               Temperatura (degC), Punto: (BILLETTA_r-5*FUNZ_depth_billetta, 0.5)Temperatura (degC), Punto: (BILLETTA_r-2*FUNZ_depth_billetta, 0.5)Temperatura (degC), Punto: (BILLETTA_r-FUNZ_depth_billetta, 0.5)Temperatura (degC), Punto: (0.5*BILLETTA_r, 0.5)  Temperatura (degC), Punto: (BILLETTA_r-10*FUNZ_depth_billetta, 0.5)
0                                                 20.788070208175213                                20                                                20.004524207559086                                20.30462650783454                                 20.54997299102712                                 20                                                20.000000000545413
5                                                 1007.5352446750977                                20.8746603669652                                  886.9410697046925                                 985.8775843257837                                 1002.439644976709                                 47.71980999273677                                 685.3911602711172
10                                                1225.6704879115941                                41.00968299223541                                 1199.8468519547082                                1224.1905653537256                                1226.354757845078                                 149.18454956236872                                1093.2886089194076
15                                                1223.8111100557485                                93.2898818671739                                  1216.421375490223                                 1225.1907113759207                                1225.2012916994263                                259.8486959471876                                 1172.3916764759992
20                                                1215.1258928796547                                168.13774657317776                                1213.2231783844022                                1217.3049151416412                                1216.6967811542663                                360.5546188459083                                 1187.961692913871
25                                                1226.9980820192482                                247.59323529362882                                1227.7220018639755                                1229.6552691804586                                1228.7107819718995                                447.1861196993159                                 1209.61442057155
30                                                1253.7556160155304                                321.5872899149715                                 1255.2213669428284                                1256.6369398457882                                1255.573086105188                                 520.5096685095286                                 1239.2409197336779
35                                                1272.1964853117038                                388.6794001279503                                 1274.932462148944                                 1275.3678525451141                                1274.1222539422188                                583.8318758464338                                 1262.1225818897651
40                                                1289.445241022599                                 448.65047301809636                                1292.803925245511                                 1292.7902820858812                                1291.4477426047138                                639.3643618266824                                 1281.5754160784259
45                                                1310.869436610927                                 502.6400470662617                                 1314.8152753844533                                1314.4110051048924                                1312.9642344315707                                690.3020833777083                                 1304.6742061541345
50                                                1337.514440611711                                 551.5806036391565                                 1342.0959910410688                                1341.29258022897                                  1339.723619191945                                 738.0240784535434                                 1332.81203543858
55                                                1362.7282179312256                                595.8402166539208                                 1367.997311360246                                 1366.7434102886973                                1365.0501286902518                                790.0026391156063                                 1359.8108849429204
59.357881923191655                                1384.3188885182917                                630.5330028498556                                 1390.2263658424436                                1388.545331214612                                 1386.7403967984192                                837.8251926051604                                 1383.1279462928887
