% Model:              batchmodel_BILLETTA_r_0.0445341_COIL_kr_1.4848_COIL_kw_3.2356_FUNZ_freq_8940.8_FUNZ_I_eff_61.5962.mph
% Version:            COMSOL 5.6.0.401
% Date:               Jan 26 2022, 17:52
% Table:              Tabella delle sonde 1 - 
% Tempo (s)                                       Temperatura (degC), Punto: (BILLETTA_r-0.01[mm], 0.5)Temperatura (degC), Punto: (0, 0.5)               Temperatura (degC), Punto: (BILLETTA_r-5*FUNZ_depth_billetta, 0.5)Temperatura (degC), Punto: (BILLETTA_r-2*FUNZ_depth_billetta, 0.5)Temperatura (degC), Punto: (BILLETTA_r-FUNZ_depth_billetta, 0.5)Temperatura (degC), Punto: (0.5*BILLETTA_r, 0.5)  Temperatura (degC), Punto: (BILLETTA_r-10*FUNZ_depth_billetta, 0.5)
0                                                 20.628743381935976                                20                                                20.000135154817258                                20.15566129939026                                 20.391812222624026                                19.999999999999943                                20.00000000003513
5                                                 408.48494486256584                                20.651797039938685                                372.6291400578815                                 399.9321501026445                                 406.0693339201266                                 33.86208743290348                                 326.98314972735284
10                                                670.1264980048267                                 32.137635701061186                                625.2567207428182                                 660.2217831198718                                 667.4627298332567                                 88.6953322447095                                  561.5743196765364
15                                                926.8167757381133                                 64.60889744438452                                 866.2548822649686                                 915.0596113665014                                 923.9650300513164                                 164.76524737182956                                770.8459211262722
20                                                1062.8329720085494                                115.28275635946824                                1025.70296122763                                  1057.2427030213244                                1061.8715814414581                                244.03297241732878                                942.1495771023766
25                                                1077.598236697433                                 173.74677310364626                                1060.797215731001                                 1076.0313120464848                                1077.725081987673                                 319.67237891259174                                1008.3962609070833
30                                                1082.0283686428734                                234.14229774837247                                1070.8329430441604                                1081.3872891228884                                1082.3955513935211                                385.8954546907878                                 1032.9426097119335
35                                                1087.1319276804688                                291.72464505836933                                1079.4082658576726                                1087.1048913182954                                1087.6637102343102                                444.0853793461656                                 1050.3305676138689
40                                                1092.4766119396472                                345.94733387493466                                1087.2423419923362                                1092.9015904905232                                1093.1321514905103                                496.0580450101231                                 1064.3562220839608
45                                                1097.6249083985704                                396.1570017275667                                 1094.1717372795079                                1098.3779093553712                                1098.371916023797                                 542.2290182207709                                 1075.6435507896608
50                                                1102.4799402585304                                442.1409857213789                                 1100.3817791214292                                1103.4840423416053                                1103.2978772893048                                583.1067214269665                                 1085.1737012394
55                                                1106.948302439714                                 483.78582639891806                                1105.8601418313383                                1108.1399637415143                                1107.8198950829365                                618.8217792486802                                 1093.163921907279
60                                                1110.0473102486667                                521.989122708974                                  1109.5785136287168                                1111.355109298037                                 1110.9525064109189                                650.8067236242505                                 1098.4090395763424
65                                                1112.0455121914474                                556.5368462438453                                 1111.8044759430436                                1113.3979584472368                                1112.9644639262133                                678.6709428612711                                 1101.1862118421495
70                                                1112.942908268055                                 587.4289970035314                                 1112.5380287743183                                1114.2685111891133                                1113.8557676288192                                702.4144369597426                                 1101.4954387047014
75                                                1115.828453299865                                 615.7226697403357                                 1115.7400039027161                                1117.2172190465312                                1116.7611138576017                                725.445010750233                                  1105.4697360240461
80                                                1120.2762317860288                                641.2721086672989                                 1120.8642684939982                                1121.7958988091823                                1121.2482801171254                                747.2927846180713                                 1112.2634629045428
85                                                1125.5891894702295                                663.8387695391878                                 1127.0170203365492                                1127.2710528379012                                1126.6098901097052                                767.1887525404408                                 1120.4926415748996
90                                                1131.1766250366677                                683.6505964429342                                 1133.3772815960524                                1133.0100561514537                                1132.2436103341843                                786.7062913802064                                 1128.7431464211945
95                                                1136.4319449843438                                700.9416660565919                                 1139.1019869102993                                1138.363263672165                                 1137.5309021527382                                807.4611080168164                                 1135.5628062969304
100                                               1141.868442171111                                 715.5139052276511                                 1144.904529067724                                 1143.8803980362982                                1142.9951662687672                                828.0860087691038                                 1142.1804327153327
105                                               1147.4997236910267                                728.2846793178213                                 1150.8178075219853                                1149.578470082754                                 1148.6509403720434                                848.6881341279719                                 1148.684207535091
110                                               1153.339239893025                                 740.1607862195963                                 1156.8743427458267                                1155.4742946963179                                1154.5125946873413                                869.37339039358                                   1155.1612968156119
115                                               1159.3764108931427                                750.4289495318875                                 1163.0485545234674                                1161.5546454892747                                1160.5688257673391                                890.0584729340411                                 1161.5431367747506
120                                               1165.518903860312                                 761.2642973193523                                 1169.3143605102077                                1167.738463808054                                 1166.7301235308632                                910.3029988155                                    1167.9797512532746
125                                               1171.685646536002                                 774.5766870265842                                 1175.6488592681953                                1173.9545766143924                                1172.917894217082                                 929.7202925872735                                 1174.6028677360223
130                                               1177.943206641739                                 788.7979514305383                                 1182.0708549675023                                1180.261423466743                                 1179.1966704747642                                948.6278500757822                                 1181.3043259387368
135                                               1184.3815110704718                                805.2654870703108                                 1188.6733354510802                                1186.7496974443147                                1185.6566760042824                                967.021672870209                                  1188.1813136418846
140                                               1191.070329687485                                 825.016914320663                                  1195.5284454251764                                1193.4897628587282                                1192.367910949239                                 984.8986587997239                                 1195.309234077221
145                                               1197.949546282065                                 847.158182364161                                  1202.5740224311853                                1200.42099130305                                  1199.2700606828862                                1002.2614808056388                                1202.6231171240465
150                                               1205.0599638872495                                871.3978703553297                                 1209.8454708000222                                1207.582700180336                                 1206.4033102806002                                1019.2405390410989                                1210.1464590523115
155                                               1212.4293696312725                                897.5375188218997                                 1217.366901109015                                 1215.001664895237                                 1213.7950260374678                                1035.9246368500599                                1217.8952609731487
160                                               1220.0324769854196                                925.7577276121887                                 1225.1163725227957                                1222.6535195963106                                1221.4203043866037                                1052.232962416057                                 1225.85496173606
165                                               1227.8141966020007                                954.010864295618                                  1233.0394891628885                                1230.483345158097                                 1229.2241169998115                                1068.2781078262528                                1233.973331243068
170                                               1235.7418748450732                                981.0832161175559                                 1241.1040084399897                                1238.4585888421025                                1237.1738464098162                                1084.1268108653267                                1242.2194106486586
175                                               1243.8471458296326                                1008.1506009537876                                1249.341166256269                                 1246.6107870161222                                1245.3010916922126                                1099.7144174543646                                1250.6231921926187
180                                               1251.8852911914464                                1030.0977258179787                                1257.5126543116035                                1254.696934752395                                 1253.3618283322135                                1114.298682135789                                 1258.960835137931
185                                               1259.780157028436                                 1048.2596199913855                                1265.5445515612291                                1262.640934827658                                 1261.279782398165                                 1128.2783400252938                                1267.1664144635656
190                                               1267.675022865426                                 1066.4215141647928                                1273.5764488108553                                1270.5849349029208                                1269.1977364641175                                1142.2579979147995                                1275.3719937892006
195                                               1275.569888702416                                 1084.5834083381997                                1281.608346060481                                 1278.5289349781833                                1277.1156905300695                                1156.2376558043047                                1283.577573114835
200                                               1283.464754539406                                 1102.745302511607                                 1289.640243310107                                 1286.4729350534458                                1285.0336445960215                                1170.21731369381                                  1291.7831524404696
205                                               1291.202530668183                                 1119.0219194105575                                1297.5129334011003                                1294.2596183857804                                1292.7945079763035                                1183.3764417101215                                1299.8231338224641
210                                               1298.8240954876087                                1133.9038520679574                                1305.267845742213                                 1301.9299224537658                                1300.4391593241348                                1195.9285608268042                                1307.740609700596
215                                               1306.4456603070344                                1148.7857847253576                                1313.0227580833266                                1309.6002265217517                                1308.0838106719661                                1208.4806799434864                                1315.6580855787279
220                                               1314.06722512646                                  1163.6677173827575                                1320.7776704244388                                1317.270530589738                                 1315.7284620197975                                1221.032799060169                                 1323.5755614568602
225                                               1321.6411965537955                                1178.3763788961005                                1328.4842651075955                                1324.8930314106933                                1323.325431600595                                 1233.4642442980426                                1331.4434736735052
230                                               1328.6263703770078                                1190.9414311812943                                1335.5931019930404                                1331.924138424978                                 1330.3325102541758                                1244.4027829032543                                1338.69821326569
235                                               1335.6115442002201                                1203.5064834664886                                1342.7019388784847                                1338.9552454392629                                1337.3395889077565                                1255.341321508467                                 1345.9529528578755
240                                               1342.596718023433                                 1216.0715357516824                                1349.8107757639295                                1345.9863524535476                                1344.3466675613372                                1266.2798601136788                                1353.2076924500607
245                                               1349.5818918466452                                1228.6365880368762                                1356.9196126493744                                1353.017459467832                                 1351.353746214918                                 1277.2183987188914                                1360.4624320422458
250                                               1355.716901300223                                 1240.1543664660858                                1363.1641168137758                                1359.1933133594143                                1357.508282579753                                 1287.1866334001443                                1366.8364061864881
