% Model:              batchmodel_BILLETTA_r_0.0445341_COIL_kr_1.4848_COIL_kw_3.2356_FUNZ_freq_7167.5_FUNZ_I_eff_162.3068.mph
% Version:            COMSOL 5.6.0.401
% Date:               Jan 26 2022, 17:51
% Table:              Tabella delle sonde 1 - 
% Tempo (s)                                       Temperatura (degC), Punto: (BILLETTA_r-0.01[mm], 0.5)Temperatura (degC), Punto: (0, 0.5)               Temperatura (degC), Punto: (BILLETTA_r-5*FUNZ_depth_billetta, 0.5)Temperatura (degC), Punto: (BILLETTA_r-2*FUNZ_depth_billetta, 0.5)Temperatura (degC), Punto: (BILLETTA_r-FUNZ_depth_billetta, 0.5)Temperatura (degC), Punto: (0.5*BILLETTA_r, 0.5)  Temperatura (degC), Punto: (BILLETTA_r-10*FUNZ_depth_billetta, 0.5)
0                                                 21.57592219805349                                 20                                                20.040571988248246                                20.712609633303543                                21.173290794506784                                20                                                20.000000010883753
5                                                 1315.4321223697657                                20.748258944076724                                1293.5763152619315                                1314.3258954462576                                1316.1260768459933                                60.29920962294119                                 1206.4441571661146
10                                                1362.6546441835803                                43.898832302765584                                1358.2295365072064                                1364.4712571838108                                1364.1534479220977                                191.2226581473766                                 1325.4391305217628
14.016921914530938                                1391.793721104937                                 96.77269579290953                                 1391.1559728336783                                1394.3145210648431                                1393.516797998132                                 295.30077518791757                                1369.4092372136024
