% Model:              batchmodel_BILLETTA_r_0.0445341_COIL_kr_1.4848_COIL_kw_3.2356_FUNZ_freq_2540.9_FUNZ_I_eff_127.5152.mph
% Version:            COMSOL 5.6.0.401
% Date:               Jan 26 2022, 17:36
% Table:              Tabella delle sonde 1 - 
% Tempo (s)                                       Temperatura (degC), Punto: (BILLETTA_r-0.01[mm], 0.5)Temperatura (degC), Punto: (0, 0.5)               Temperatura (degC), Punto: (BILLETTA_r-5*FUNZ_depth_billetta, 0.5)Temperatura (degC), Punto: (BILLETTA_r-2*FUNZ_depth_billetta, 0.5)Temperatura (degC), Punto: (BILLETTA_r-FUNZ_depth_billetta, 0.5)Temperatura (degC), Punto: (0.5*BILLETTA_r, 0.5)  Temperatura (degC), Punto: (BILLETTA_r-10*FUNZ_depth_billetta, 0.5)
0                                                 20.304004485372104                                20                                                20.00082417116397                                 20.077020137285558                                20.21015566049988                                 20                                                20.000000000107207
5                                                 628.5085486881213                                 20.752536932561043                                542.1688588227358                                 610.4167711135435                                 623.7190303653725                                 39.900582622714126                                413.5145575483341
10                                                1032.0823021838378                                34.070036463969814                                917.5083424258322                                 1010.7692708364513                                1027.3359417516172                                119.68950653067606                                724.5919948483595
15                                                1174.4063705831027                                76.20377007358252                                 1140.2128355871373                                1172.2947231006287                                1175.1931945960182                                219.27334200305455                                1003.3862296252711
20                                                1183.0441729217855                                142.5579293114826                                 1169.4736972267274                                1184.1172434304244                                1184.6415220353192                                316.83296887477206                                1103.83377609338
25                                                1162.4935667831237                                217.2150594539891                                 1153.6257399424876                                1164.1578840420393                                1164.1793541830293                                404.4404678269226                                 1105.2648655506105
30                                                1188.8699629168632                                288.0727706337633                                 1187.0820433448494                                1191.8467863900169                                1190.9567491143107                                476.90460636066086                                1154.6677962137655
35                                                1215.5278411979361                                353.89169012543334                                1217.230272325252                                 1219.2414745119195                                1217.8694755458578                                540.8160846012124                                 1193.373222706468
40                                                1217.5754650419335                                408.58850744137715                                1220.6156166145793                                1221.4943240112325                                1219.9715067659922                                592.5402649650767                                 1201.6805627626104
45                                                1221.3067807455923                                460.59943894161324                                1225.5689994394384                                1225.4282685357598                                1223.7614544494763                                641.7124725739773                                 1210.860698397521
50                                                1227.6128899627583                                508.24133368754394                                1232.8826254799264                                1231.926093080574                                 1230.1308215900372                                686.740040089078                                  1221.2717261664684
55                                                1235.623604934075                                 552.3269519649057                                 1241.6664373807293                                1240.104130998695                                 1238.2033144305883                                728.5662344953049                                 1232.2516764104475
60                                                1245.7491890433394                                592.236329842011                                  1252.3816440779638                                1250.3831540143133                                1248.3930323104792                                770.1857794169977                                 1244.4269910499006
65                                                1257.565493543273                                 629.2368737832081                                 1264.7485872794946                                1262.3594773353693                                1260.280044976691                                 814.8993699270824                                 1257.9965853559115
70                                                1271.5381649199085                                662.5274529166035                                 1279.2221767996948                                1276.5005596423916                                1274.331809589718                                 863.5591466064667                                 1273.3444621658873
75                                                1287.2729512095111                                691.9600608427432                                 1295.433339678139                                 1292.4139409401105                                1290.1536957047338                                913.1392887766048                                 1290.2062122760021
80                                                1304.4244436343265                                716.8521952319263                                 1313.0694906373546                                1309.7580078545807                                1307.4007354101914                                959.4471454955116                                 1308.3908058490165
85                                                1323.1680186841072                                737.7008763535665                                 1332.2880159201172                                1328.7059269287615                                1326.2479861251395                                1004.8448871990935                                1327.9905074870971
90                                                1341.178585084751                                 766.2803684467225                                 1350.8407013565084                                1346.9273865619712                                1344.362966537929                                 1046.4976989433503                                1347.2051437336304
95                                                1359.4245749335396                                797.6865305264818                                 1369.663958685699                                 1365.3929931884209                                1362.7171867968596                                1085.586319657632                                 1366.7845112849773
96.99074623433413                                 1366.7547288792352                                810.977634421342                                  1377.2337343226736                                1372.8130154656924                                1370.0914948399272                                1100.435717792272                                 1374.6815395948324
