% Model:              batchmodel_BILLETTA_r_0.0445341_COIL_kr_1.4848_COIL_kw_3.7744_FUNZ_freq_2540.9_FUNZ_I_eff_61.5962.mph
% Version:            COMSOL 5.6.0.401
% Date:               Jan 26 2022, 17:57
% Table:              Tabella delle sonde 1 - 
% Tempo (s)                                       Temperatura (degC), Punto: (BILLETTA_r-0.01[mm], 0.5)Temperatura (degC), Punto: (0, 0.5)               Temperatura (degC), Punto: (BILLETTA_r-5*FUNZ_depth_billetta, 0.5)Temperatura (degC), Punto: (BILLETTA_r-2*FUNZ_depth_billetta, 0.5)Temperatura (degC), Punto: (BILLETTA_r-FUNZ_depth_billetta, 0.5)Temperatura (degC), Punto: (0.5*BILLETTA_r, 0.5)  Temperatura (degC), Punto: (BILLETTA_r-10*FUNZ_depth_billetta, 0.5)
0                                                 20.190038935018038                                20                                                20.00000549919605                                 20.03913290160807                                 20.10533738225365                                 20                                                20.000000000001705
5                                                 183.54946132375233                                20.404733825364133                                158.31801649107075                                176.90202358832272                                181.5738107030749                                 26.953606281972668                                129.80280294685616
10                                                277.6052478540146                                 27.559854158011092                                249.07066327058715                                270.39169736795145                                275.5166792830513                                 55.26471091049319                                 215.0038884471569
15                                                368.8944859644703                                 43.00536378070177                                 336.7541661611841                                 361.13395021423037                                366.7028425531479                                 92.37704734143739                                 296.6891689045283
20                                                456.2561993303393                                 67.73343622403183                                 420.786606314603                                  447.98422929111894                                453.9671623780556                                 135.67093413783215                                374.9886256380797
25                                                537.7886308193291                                 100.16778698689711                                500.8128021365949                                 529.5139733918314                                 535.5557661548041                                 181.78438122133934                                450.51091520452974
30                                                622.7045467173685                                 138.08987821681944                                582.7517019318524                                 614.125216730502                                  620.47065724412                                   229.67447761955503                                526.6140262011461
35                                                706.1656444603605                                 179.38600748855362                                662.3750208018092                                 696.9938070596904                                 703.8693859327445                                 278.3620977170747                                 600.2119009899258
40                                                778.569501236471                                  222.2272058292403                                 732.0986639076804                                 769.0784437161445                                 776.301946792545                                  326.85150316112595                                665.4141858300615
45                                                846.9180356495177                                 264.8641692212444                                 796.7635298360427                                 837.2955486078341                                 844.7763046432673                                 374.01321023536605                                723.4384461648533
50                                                911.6197347061278                                 306.88121280850066                                859.2601934690302                                 901.9926082842404                                 909.6298161374026                                 419.157937181388                                  778.0974891782204
55                                                970.8575639512013                                 347.2988004704023                                 921.0867869277198                                 962.3050338172417                                 969.299244313779                                  461.6701089984243                                 837.0153300719973
60                                                1024.8068931892294                                386.238623208694                                  982.0192954254416                                 1018.3051075589364                                1023.9333424722009                                501.6335477771868                                 899.2934925082601
65                                                1047.194181469236                                 423.2722760341496                                 1011.5046320708537                                1042.2874084324067                                1046.7834682356588                                538.2596995099101                                 934.8767662824758
70                                                1034.2270378619478                                458.33792186138226                                1005.1326851928944                                1030.2528642235247                                1033.9886533048953                                571.43474226936                                   939.4269045336774
75                                                1016.4167441489991                                491.3913088846491                                 993.3542718409561                                 1013.2844159761006                                1016.3286488231169                                601.4489185847353                                 938.7729411089653
80                                                1041.4380716682113                                522.1283688578359                                 1021.5683897039756                                1039.476899805516                                 1041.774885120954                                 628.4845030765995                                 969.3387595454573
85                                                1063.6685618729725                                549.1521819588097                                 1047.4269834676438                                1062.8920134794016                                1064.422293199972                                 651.6081997152585                                 999.1707430108623
90                                                1068.6249360958323                                573.9667047318989                                 1057.7964365704556                                1068.9599372697207                                1069.6915393513054                                673.0502752184718                                 1018.5012078182668
95                                                1072.347352739468                                 596.8177777934606                                 1065.1851469778267                                1073.414736474493                                 1073.6196428291305                                692.8943261139971                                 1032.6783124720018
100                                               1075.2236887977401                                618.3225836014044                                 1070.5300687112244                                1076.7634738367947                                1076.6281727354135                                711.642668681891                                  1043.3219423541377
105                                               1077.7996517350798                                637.8165834588785                                 1074.8728523764207                                1079.676248912794                                 1079.2992946385511                                729.004130647397                                  1051.6373021173522
110                                               1080.2478642431506                                656.4553758911611                                 1078.7894209129054                                1082.4036067016295                                1081.8269149623648                                745.7757442544679                                 1058.9624351045381
115                                               1082.4882415713673                                672.9488433489598                                 1082.1413126491966                                1084.8568533856524                                1084.1286394018084                                762.4715608922671                                 1064.9189334400344
120                                               1084.6798578394523                                688.9389873551867                                 1085.360723255833                                 1087.2457897441868                                1086.3773654854936                                779.1495944936288                                 1070.5543308117972
125                                               1086.800628646854                                 703.0516024187795                                 1088.354155747536                                 1089.5353922806303                                1088.5475709692332                                796.3194140109612                                 1075.596371871512
130                                               1088.8624330196221                                715.6015035610793                                 1091.1595010475617                                1091.742316812431                                 1090.652421809507                                 813.8985591475863                                 1080.144547751272
135                                               1090.8693289684647                                726.696235181983                                  1093.789703127216                                 1093.87225315669                                  1092.696415647128                                 831.8588605261863                                 1084.2328457559092
140                                               1092.821395469276                                 736.6440841102858                                 1096.2598212664548                                1095.9280211705595                                1094.6803627531367                                850.0058954643822                                 1087.9114327169327
145                                               1094.719228666117                                 747.772132070961                                  1098.683529394572                                 1097.9309063499873                                1096.6103794022256                                866.8720778416422                                 1091.5589894792488
150                                               1096.5624518897457                                758.6100295832192                                 1100.989003474997                                 1099.8674596108353                                1098.4826010711927                                883.3846911595223                                 1094.9362493348099
155                                               1098.3510651401612                                769.1577766470601                                 1103.1762435077303                                1101.7376809531033                                1100.2970277600375                                899.5437354180211                                 1098.0432122836155
160                                               1100.1155034664434                                780.6096860554411                                 1105.297633230131                                 1103.5760132795294                                1102.0851517680644                                915.1668599051662                                 1100.9842778614106
165                                               1101.9096912787504                                795.081825133847                                  1107.4459854427205                                1105.443482061416                                 1103.9027707271457                                929.9309780847819                                 1103.9444197599182
170                                               1103.6911124943326                                810.9058048679168                                 1109.5481229573656                                1107.2919724657936                                1105.7058916343549                                944.090823830952                                  1106.7777975932963
175                                               1105.45976711319                                  828.0816252576502                                 1111.6040457740646                                1109.1214844926617                                1107.4945144896915                                957.6463971436764                                 1109.4844113615445
180                                               1107.2475664327517                                846.2912456640857                                 1113.663291058112                                 1110.9674690147313                                1109.301636191382                                 970.6777947927736                                 1112.1530397333095
185                                               1109.0670481388847                                865.4097105402674                                 1115.745321553653                                 1112.8438543878383                                1111.1402209489047                                983.2164861392502                                 1114.8185631161223
190                                               1110.8995592029023                                885.6229233636501                                 1117.8211814287483                                1114.7299186044515                                1112.9909811701268                                995.2156524240605                                 1117.429087942926
195                                               1112.7450996248049                                906.9308841342341                                 1119.8908706833981                                1116.62566166457                                  1114.8539168550487                                1006.6752936472043                                1119.9846142137199
200                                               1114.6447425600913                                926.7708327999222                                 1122.0109811094967                                1118.5753186011175                                1116.7711023414827                                1017.7897457224482                                1122.5773451908935
205                                               1116.5890861199155                                945.7294003331036                                 1124.168558510305                                 1120.5687637527558                                1118.7329065640138                                1028.5145240067727                                1125.1861750009462
210                                               1118.5693569877267                                964.3539979299156                                 1126.3515147543303                                1122.5965484189474                                1120.730342351343                                 1038.8081179206283                                1127.7914088237912
215                                               1120.585585521182                                 982.6417491701703                                 1128.5598883530633                                1124.6587044783496                                1122.7634404931537                                1048.6705361262038                                1130.3931061858975
220                                               1122.6569624208842                                998.7743148452838                                 1130.8180244806085                                1126.7753841372187                                1124.8516647968463                                1058.1072544568497                                1133.0288969557705
225                                               1124.772309403928                                 1013.8108491004665                                1133.1117424538734                                1128.9348490506463                                1126.983677899077                                 1067.115083325296                                 1135.6768623236399
230                                               1126.931626470312                                 1027.751351935719                                 1135.4410422728592                                1131.1370992186326                                1129.1594797998464                                1075.694022731543                                 1138.3370022895056
235                                               1129.1327849521272                                1040.5842204042656                                1137.8047055089028                                1133.3801410082951                                1131.3769668869236                                1083.8615600828912                                1141.0107551256474
240                                               1131.3673463488208                                1052.2634579125079                                1140.1979020469375                                1135.6560712271757                                1133.6277999858962                                1091.6870192487254                                1143.7038224548346
245                                               1133.6410141949536                                1062.820153296625                                 1142.6238965342832                                1137.9702315981367                                1135.9176154973516                                1099.1235446197502                                1146.4123505826446
250                                               1135.9537884905262                                1072.254306556617                                 1145.0826889709401                                1140.3226221211794                                1138.2464134212896                                1106.1711361959642                                1149.1363395090766
