% Model:              batchmodel_BILLETTA_r_0.0445341_COIL_kr_1.4848_COIL_kw_3.2356_FUNZ_freq_8940.8_FUNZ_I_eff_85.0125.mph
% Version:            COMSOL 5.6.0.401
% Date:               Jan 26 2022, 17:55
% Table:              Tabella delle sonde 1 - 
% Tempo (s)                                       Temperatura (degC), Punto: (BILLETTA_r-0.01[mm], 0.5)Temperatura (degC), Punto: (0, 0.5)               Temperatura (degC), Punto: (BILLETTA_r-5*FUNZ_depth_billetta, 0.5)Temperatura (degC), Punto: (BILLETTA_r-2*FUNZ_depth_billetta, 0.5)Temperatura (degC), Punto: (BILLETTA_r-FUNZ_depth_billetta, 0.5)Temperatura (degC), Punto: (0.5*BILLETTA_r, 0.5)  Temperatura (degC), Punto: (BILLETTA_r-10*FUNZ_depth_billetta, 0.5)
0                                                 20.920220697029663                                20                                                20.000899931642266                                20.292732970279985                                20.618999606343095                                19.999999999999943                                20.000000000235787
5                                                 771.068629876918                                  20.79507638661255                                 700.1711428176122                                 756.4220445376844                                 767.2331547943583                                 41.636789086399915                                593.2616865304952
10                                                1110.2850923139222                                38.24024017124941                                 1072.514488089099                                 1105.6805032630232                                1109.7217404147286                                127.5120261763065                                 960.5763324430267
15                                                1131.5885708850224                                83.67664702878926                                 1119.564143002291                                 1131.1485510053035                                1132.0876428886945                                226.22411036049533                                1071.5007543865286
20                                                1139.1331524577126                                148.1339793247946                                 1133.6964660636063                                1139.7842094332068                                1139.9163544949101                                317.43413333236424                                1105.3077182653115
25                                                1141.0300468803957                                219.6384972267777                                 1138.040198793623                                 1142.0573014284469                                1141.9078277104536                                396.8096893780904                                 1117.6662364709427
30                                                1147.0200642701743                                288.53871886245315                                1145.5874594243987                                1148.31180223422                                  1147.9716383501427                                464.7325660672881                                 1130.0168935319875
35                                                1147.6324355165466                                351.71747146881796                                1147.2322171086225                                1149.0811317973576                                1148.6231308999272                                522.757122968521                                  1135.1643920961737
40                                                1149.408861018279                                 408.7378046935331                                 1149.706107427045                                 1150.97910334975                                  1150.4326651548377                                572.0937928581848                                 1139.4876224610734
45                                                1166.583752750394                                 459.0066984604283                                 1167.6931162419178                                1168.3557007544305                                1167.682742997702                                 615.0626261636954                                 1158.980189641606
50                                                1180.708421782911                                 503.9185576429311                                 1182.3753404031618                                1182.6224564019667                                1181.8630562793487                                653.1471952251862                                 1174.8233056785239
55                                                1193.6233527167556                                544.2217089608148                                 1195.748412903225                                 1195.6571336368352                                1194.8264174640422                                687.1109008292768                                 1189.1909733591706
60                                                1206.9138815172655                                580.6777151092732                                 1209.4474458956524                                1209.0591361374914                                1208.1632936245387                                718.6145893170259                                 1203.7403901335897
65                                                1221.9863309809166                                613.6813805003907                                 1224.8765614824215                                1224.238127291972                                 1223.282087628119                                 748.8974326732786                                 1219.8194783215622
70                                                1238.3238361005706                                643.1932613558796                                 1241.5259042021744                                1240.6778315444303                                1239.6659702383968                                778.5513152662007                                 1236.9545408626186
75                                                1255.4221781378583                                669.5443941837198                                 1258.9282620946192                                1257.8821840798819                                1256.8136543121636                                811.0927115689909                                 1254.7776806364323
80                                                1273.5231895570928                                692.5760078625498                                 1277.307718501202                                 1276.0891065928954                                1274.9655662674509                                844.835056559698                                  1273.4653477834918
85                                                1292.0523309367782                                712.3950766400609                                 1296.1426001524505                                1294.732307205601                                 1293.5491169996649                                879.2932365611663                                 1292.6542211726342
90                                                1311.1272490633155                                728.979695706944                                  1315.5397285847257                                1313.9277438785907                                1312.6815539344188                                914.5665869070928                                 1312.4186970278843
95                                                1330.1962884969735                                744.3657161060098                                 1334.9478445691366                                1333.1215273696157                                1331.809788616536                                 949.7402930814909                                 1332.2306920294473
100                                               1348.6200709775171                                760.7086728527671                                 1353.733345247544                                 1351.6727620831512                                1350.2931308229822                                983.8014656251049                                 1351.497067336698
104.41108430713362                                1364.6696490866375                                774.8034965209434                                 1370.1178410065418                                1367.8378159841795                                1366.3962364341874                                1013.4523288451961                                1368.3487433839673
