% Model:              batchmodel_BILLETTA_r_0.0445341_COIL_kr_1.4848_COIL_kw_3.7744_FUNZ_freq_4639.7_FUNZ_I_eff_61.5962.mph
% Version:            COMSOL 5.6.0.401
% Date:               Jan 26 2022, 18:01
% Table:              Tabella delle sonde 1 - 
% Tempo (s)                                       Temperatura (degC), Punto: (BILLETTA_r-0.01[mm], 0.5)Temperatura (degC), Punto: (0, 0.5)               Temperatura (degC), Punto: (BILLETTA_r-5*FUNZ_depth_billetta, 0.5)Temperatura (degC), Punto: (BILLETTA_r-2*FUNZ_depth_billetta, 0.5)Temperatura (degC), Punto: (BILLETTA_r-FUNZ_depth_billetta, 0.5)Temperatura (degC), Punto: (0.5*BILLETTA_r, 0.5)  Temperatura (degC), Punto: (BILLETTA_r-10*FUNZ_depth_billetta, 0.5)
0                                                 20.339350063233667                                20                                                20.000018991874015                                20.075544567561963                                20.19789666094084                                 20                                                20.000000000005116
5                                                 260.069537861644                                  20.581880585751264                                230.78274169393296                                252.55051033344                                   257.90369472625775                                29.11787625908528                                 196.80497916995148
10                                                410.9509298285428                                 28.47862444191304                                 376.43378418049406                                402.79485427199404                                408.6573211652725                                 66.75901716841378                                 332.4039431508671
15                                                557.9442341085925                                 49.15900759679732                                 518.5937093908274                                 549.043876986637                                  555.518624964859                                  119.3283117609655                                 464.7196904859521
20                                                687.3938935825773                                 82.55278551239087                                 644.8472702798445                                 677.8074794622739                                 684.8496248654823                                 178.25913958515667                                584.2094455650492
25                                                802.542062553559                                  126.42398530274357                                757.3181951490463                                 792.4825912406474                                 799.9725555049052                                 240.20863570996767                                689.9836521770688
30                                                940.1510031366394                                 176.34002279498873                                886.711133571126                                  930.2518003561037                                 937.9531841203462                                 301.5246528838795                                 796.4166621235141
35                                                1031.3626344449804                                227.95766083582032                                985.4412748781459                                 1024.0376294437756                                1030.062418936417                                 360.6924343499737                                 895.4756484989447
40                                                1074.112798196254                                 279.8609174128769                                 1043.844147289802                                 1070.3539646505774                                1073.860755203826                                 416.84111018831254                                969.8838865631825
45                                                1074.2843605716935                                330.1868907990395                                 1058.4080272397887                                1073.3456114963683                                1074.7841062901448                                468.81896639262334                                1005.8203865957418
50                                                1077.1171539227685                                377.9267541073716                                 1066.3646200408534                                1077.0440738222105                                1077.8418116353287                                515.8831003209635                                 1026.4868758703124
55                                                1083.197748605763                                 422.46570561553835                                1075.9824441812807                                1083.7622217265257                                1084.0988096273604                                558.168169179038                                  1045.2277256662414
60                                                1091.0690553643358                                463.67476664369497                                1086.3791570104659                                1092.125801954554                                 1092.114433334084                                 595.8393397178588                                 1061.8136667259805
65                                                1097.835854416328                                 501.55642322752874                                1095.0777112633905                                1099.2657308477083                                1098.9906070536317                                629.3204847869354                                 1074.714640820217
70                                                1100.44756383184                                  536.6930130022241                                 1099.1981340846128                                1102.1496099709711                                1101.6770109132663                                659.8244246593221                                 1082.409382333291
75                                                1099.6699129017197                                568.9692938908892                                 1099.429791465845                                 1101.5338468772961                                1100.9383113033105                                687.0797979838966                                 1085.2492342744185
80                                                1098.9911163652878                                598.4524156054582                                 1099.5112929173206                                1100.97432365024                                  1100.2877317166472                                711.6991349176037                                 1087.3818738895811
85                                                1100.8083821504301                                625.1885254831326                                 1102.0119253169878                                1102.914751287648                                 1102.139666862019                                 734.1033849311707                                 1091.657711924508
90                                                1103.1532767464719                                649.1397302882361                                 1104.8219549491105                                1105.348510938229                                 1104.511570545832                                 753.9468912983531                                 1095.7361737607812
95                                                1105.554738426063                                 670.6091982540254                                 1107.7058235401146                                1107.842992052514                                 1106.9411905754869                                774.2859176923145                                 1099.8491632204232
100                                               1108.1243994524893                                689.5250845370964                                 1110.7193537172452                                1110.5007147291544                                1109.5380715296928                                794.3961903900455                                 1103.9417237085459
105                                               1110.875086289996                                 705.9046917822761                                 1113.8572586188156                                1113.3312694839096                                1112.314247514254                                 814.0067260067648                                 1107.9820044986463
110                                               1113.573512407429                                 720.0475842594238                                 1116.9344714020312                                1116.1076141838912                                1115.0375646402504                                833.5333110533644                                 1111.9355526323911
115                                               1116.3380669087296                                731.8017379948196                                 1120.044910466635                                 1118.9449690029192                                1117.8258372141909                                852.7649406672336                                 1115.8198524233617
120                                               1119.1032741671202                                742.169507360141                                  1123.1258704978109                                1121.7777250957224                                1120.6134231900828                                871.4698686890628                                 1119.5959034625357
125                                               1121.8055083853947                                752.1249280251276                                 1126.1164177429482                                1124.5421272103154                                1123.336535053214                                 889.4228962950914                                 1123.2258071876927
130                                               1124.490622285477                                 760.9660490725568                                 1129.0604648685576                                1127.2841213618171                                1126.0411420692403                                906.7863158179379                                 1126.7368756689525
135                                               1127.2014931366998                                772.1204224909528                                 1132.0127034475545                                1130.0487597588858                                1128.7707593111368                                923.1554750480765                                 1130.2229847023668
140                                               1129.9327674701722                                785.1600990841706                                 1134.966304928615                                 1132.830417379188                                 1131.5199536766304                                938.5808970959844                                 1133.6724133653665
145                                               1132.687999767329                                 799.7134870761228                                 1137.9240364426746                                1135.63257900471                                  1134.2922703318327                                953.1816116973092                                 1137.0822664282714
150                                               1135.5670305236758                                817.6781607587487                                 1140.9968573739593                                1138.5578301497785                                1137.1884579562497                                967.430890045055                                  1140.5720756892078
155                                               1138.52096436407                                  838.1248117748081                                 1144.1304270394658                                1141.5559311077313                                1140.1591764053383                                981.0969547185608                                 1144.0833022549023
160                                               1141.5837708858007                                859.8572283007753                                 1147.363848856205                                 1144.6619390193573                                1143.2387452286794                                994.3516311221796                                 1147.6645045998616
165                                               1144.8005560536849                                881.2870403606424                                 1150.749045646142                                 1147.9224039260243                                1146.4727350694247                                1007.4230747615032                                1151.380160286897
170                                               1148.1417923852005                                903.4540343085285                                 1154.252027443109                                 1151.306853016908                                 1149.831314255097                                 1020.1619293877271                                1155.188060705313
175                                               1151.6074798803465                                926.3582101444346                                 1157.872794247106                                 1154.8152862920083                                1153.3144827856959                                1032.5681950008502                                1159.0882058551097
180                                               1155.1976185391227                                949.99956786836                                   1161.6113460581337                                1158.4477037513248                                1156.9222406612207                                1044.6418716008734                                1163.0805957362868
185                                               1159.024536011576                                 970.7469265874248                                 1165.5820687875334                                1162.3172898652283                                1160.7673919194094                                1055.954697190266                                 1167.2859037115695
190                                               1163.0299734014693                                987.0588335510575                                 1169.7320726059252                                1166.3663602832353                                1164.791710898185                                 1066.6267042316595                                1171.6713655639537
195                                               1167.0354107913627                                1003.3707405146905                                1173.882076424317                                 1170.4154307012418                                1168.8160298769608                                1077.2987112730525                                1176.056827416338
200                                               1171.0408481812565                                1019.6826474783235                                1178.032080242709                                 1174.4645011192488                                1172.8403488557365                                1087.970718314445                                 1180.4422892687217
205                                               1175.0462855711498                                1035.9945544419566                                1182.1820840611008                                1178.5135715372553                                1176.8646678345121                                1098.6427253558381                                1184.8277511211054
210                                               1179.2469979738107                                1050.35939886183                                  1186.5199495841034                                1182.7577324095028                                1181.084706292068                                 1108.5608092960906                                1189.3765884104205
215                                               1183.6973589933586                                1062.2350283834226                                1191.0979862076342                                1187.2513059504727                                1185.5549615924392                                1117.5150430397834                                1194.1342924220326
220                                               1188.1477200129061                                1074.1106579050152                                1195.6760228311655                                1191.744879491443                                 1190.0252168928096                                1126.4692767834758                                1198.891996433645
225                                               1192.5980810324545                                1085.9862874266082                                1200.2540594546963                                1196.2384530324125                                1194.4954721931808                                1135.4235105271682                                1203.6497004452572
230                                               1197.048442052002                                 1097.8619169482008                                1204.8320960782276                                1200.7320265733824                                1198.9657274935516                                1144.3777442708606                                1208.4074044568697
235                                               1201.5148403350718                                1108.7640023390945                                1209.4183803823562                                1205.239646722017                                 1203.4512402734372                                1152.810369909269                                 1213.1579763778095
240                                               1206.0017413982978                                1118.4214638415392                                1214.0152089031994                                1209.7652247041997                                1207.9562589215025                                1160.5761475972113                                1217.8994303038426
245                                               1210.4886424615233                                1128.0789253439834                                1218.6120374240431                                1214.290802686383                                 1212.4612775695682                                1168.3419252851536                                1222.640884229876
250                                               1214.975543524749                                 1137.7363868464276                                1223.2088659448864                                1218.8163806685657                                1216.9662962176335                                1176.107702973096                                 1227.382338155909
