% Model:              batchmodel_BILLETTA_r_0.0445341_COIL_kr_1.4848_COIL_kw_3.2356_FUNZ_freq_2540.9_FUNZ_I_eff_162.3068.mph
% Version:            COMSOL 5.6.0.401
% Date:               Jan 26 2022, 17:38
% Table:              Tabella delle sonde 1 - 
% Tempo (s)                                       Temperatura (degC), Punto: (BILLETTA_r-0.01[mm], 0.5)Temperatura (degC), Punto: (0, 0.5)               Temperatura (degC), Punto: (BILLETTA_r-5*FUNZ_depth_billetta, 0.5)Temperatura (degC), Punto: (BILLETTA_r-2*FUNZ_depth_billetta, 0.5)Temperatura (degC), Punto: (BILLETTA_r-FUNZ_depth_billetta, 0.5)Temperatura (degC), Punto: (0.5*BILLETTA_r, 0.5)  Temperatura (degC), Punto: (BILLETTA_r-10*FUNZ_depth_billetta, 0.5)
0                                                 20.37263798172245                                 20                                                20.00579041584524                                 20.111448144569806                                20.293404726662175                                20                                                20.00000000073385
5                                                 935.8470811387452                                 20.833536249848635                                798.8070483964863                                 909.4491923351646                                 929.4629191929668                                 47.252705685375474                                597.8063290657905
10                                                1254.6342421119784                                40.440070553117266                                1218.3276652803384                                1252.6732987154978                                1255.6650823066616                                151.96222614127169                                1064.1337173311563
15                                                1286.308449646513                                 98.39683216784027                                 1274.552103787541                                 1288.3425494941666                                1288.4158494185408                                269.0507405182317                                 1204.520838012621
20                                                1302.173846838742                                 173.76096746766547                                1300.2253757953476                                1305.8423389864602                                1304.7303797150353                                377.0292561636421                                 1261.0775355420574
25                                                1314.0967356203164                                254.90727994968745                                1316.2706980083703                                1318.477005532212                                 1316.8623754747891                                472.98987474532316                                1290.3293409827493
30                                                1326.5810945123121                                332.9942756705218                                 1331.1008243113583                                1331.4026452765293                                1329.4909088477993                                557.2532461403864                                 1312.4525788428937
35                                                1342.794267419536                                 405.1047718827674                                 1348.7337795818144                                1347.9408325485701                                1345.8307927762644                                632.0470858246503                                 1334.0968194650513
40                                                1361.7727288911897                                470.6211521837686                                 1368.6610835713                                   1367.1917997143137                                1364.9319082158204                                699.9920210014463                                 1356.3014118122937
45                                                1379.948139445965                                 530.372247252186                                  1387.718686089324                                 1385.6188911293548                                1383.2227336712958                                767.7199903109532                                 1377.5516661609322
46.13039406055108                                 1384.0098047135289                                543.0700560164432                                 1391.961934065927                                 1389.7337832297094                                1387.3094892247427                                782.8788564943821                                 1382.2449059107316
