% Model:              batchmodel_BILLETTA_r_0.0445341_COIL_kr_1.4848_COIL_kw_3.2356_FUNZ_freq_8940.8_FUNZ_I_eff_174.7421.mph
% Version:            COMSOL 5.6.0.401
% Date:               Jan 26 2022, 17:57
% Table:              Tabella delle sonde 1 - 
% Tempo (s)                                       Temperatura (degC), Punto: (BILLETTA_r-0.01[mm], 0.5)Temperatura (degC), Punto: (0, 0.5)               Temperatura (degC), Punto: (BILLETTA_r-5*FUNZ_depth_billetta, 0.5)Temperatura (degC), Punto: (BILLETTA_r-2*FUNZ_depth_billetta, 0.5)Temperatura (degC), Punto: (BILLETTA_r-FUNZ_depth_billetta, 0.5)Temperatura (degC), Punto: (0.5*BILLETTA_r, 0.5)  Temperatura (degC), Punto: (BILLETTA_r-10*FUNZ_depth_billetta, 0.5)
0                                                 22.119650283475494                                20                                                20.07548150848021                                 21.007966150731363                                21.614740040681795                                19.999999999999943                                20.000000051884513
5                                                 1388.7206006375013                                21.475413973143702                                1375.0875078404592                                1388.9497335638057                                1389.7482287001103                                68.12008624078186                                 1312.3692568444344
6.637425710826267                                 1398.4613132131662                                26.11898157546142                                 1390.6772870464165                                1399.59075876947                                  1399.7264023495668                                110.49560384214811                                1348.5319617258651
