% Model:              batchmodel_BILLETTA_r_0.0445341_COIL_kr_1.4848_COIL_kw_3.2356_FUNZ_freq_8940.8_FUNZ_I_eff_162.3068.mph
% Version:            COMSOL 5.6.0.401
% Date:               Jan 26 2022, 17:55
% Table:              Tabella delle sonde 1 - 
% Tempo (s)                                       Temperatura (degC), Punto: (BILLETTA_r-0.01[mm], 0.5)Temperatura (degC), Punto: (0, 0.5)               Temperatura (degC), Punto: (BILLETTA_r-5*FUNZ_depth_billetta, 0.5)Temperatura (degC), Punto: (BILLETTA_r-2*FUNZ_depth_billetta, 0.5)Temperatura (degC), Punto: (BILLETTA_r-FUNZ_depth_billetta, 0.5)Temperatura (degC), Punto: (0.5*BILLETTA_r, 0.5)  Temperatura (degC), Punto: (BILLETTA_r-10*FUNZ_depth_billetta, 0.5)
0                                                 21.946018945727474                                20                                                20.05380847509133                                 20.89613880232872                                 21.467718187848277                                19.999999999999943                                20.00000002759731
5                                                 1345.905526606315                                 21.401736765131034                                1328.3685768341802                                1345.364140673702                                 1346.6794727399383                                65.43133958545627                                 1255.2471104030856
9.085975408885297                                 1396.1165011572657                                39.907149557653554                                1391.7230427773397                                1397.7831822273415                                1397.512168363884                                 170.4390365463429                                 1359.951335690725
