% Model:              batchmodel_BILLETTA_r_0.0445341_COIL_kr_1.4848_COIL_kw_3.2356_FUNZ_freq_7167.5_FUNZ_I_eff_61.5962.mph
% Version:            COMSOL 5.6.0.401
% Date:               Jan 26 2022, 17:49
% Table:              Tabella delle sonde 1 - 
% Tempo (s)                                       Temperatura (degC), Punto: (BILLETTA_r-0.01[mm], 0.5)Temperatura (degC), Punto: (0, 0.5)               Temperatura (degC), Punto: (BILLETTA_r-5*FUNZ_depth_billetta, 0.5)Temperatura (degC), Punto: (BILLETTA_r-2*FUNZ_depth_billetta, 0.5)Temperatura (degC), Punto: (BILLETTA_r-FUNZ_depth_billetta, 0.5)Temperatura (degC), Punto: (0.5*BILLETTA_r, 0.5)  Temperatura (degC), Punto: (BILLETTA_r-10*FUNZ_depth_billetta, 0.5)
0                                                 20.5125432297217                                  20                                                20.000065641334857                                20.121952323045093                                20.31204834674702                                 20                                                20.000000000014722
5                                                 347.80780949745474                                20.543518468225386                                314.6220829369861                                 339.635511605779                                  345.471542682904                                  31.269860127253594                                274.0005814514286
10                                                585.7379461724189                                 28.249519826625033                                541.933042906084                                  575.9790327047076                                 583.093297965353                                  77.62535956015245                                 482.75216046882247
15                                                787.4810343982341                                 53.4563526997984                                  738.8185098655232                                 776.9242358868477                                 784.7323366098964                                 146.39815696986824                                666.548213902888
20                                                957.6338902468245                                 98.35353167330044                                 902.7703772181559                                 947.3903615986156                                 955.2810901787315                                 221.8733635711137                                 812.5017804349278
25                                                1066.103812107645                                 154.99633143018002                                1031.1165645362848                                1061.0864276782272                                1065.3595576325347                                295.7835958189379                                 949.7783230027313
30                                                1080.6675654691162                                215.8270228800153                                 1065.9769320098517                                1079.7832373147685                                1081.056836282402                                 364.89097134350675                                1014.3396834558156
35                                                1087.1359366126585                                275.10193812997545                                1077.1556370505032                                1086.8953289700944                                1087.6829852864298                                427.4416247244842                                 1039.9520777671087
40                                                1086.3212359855402                                331.12983287524037                                1079.446208453487                                 1086.5899452769418                                1086.9946749024666                                482.7952271801013                                 1051.619055144674
45                                                1090.5381330107175                                383.2005705163276                                 1085.6276331883269                                1091.1685936828708                                1091.3118363785607                                531.2326773557068                                 1062.6020432980704
50                                                1094.7492286980573                                430.8411684492611                                 1091.463779837788                                 1095.6800042841464                                1095.6068419989097                                573.7362850437756                                 1072.3755996443106
55                                                1098.8174762558633                                474.02596120519183                                1096.8136656486072                                1099.9868928862625                                1099.742711014102                                 611.1576222374989                                 1080.8520797920014
60                                                1102.8007909233484                                513.1561832898956                                 1101.7973831548543                                1104.1588598465814                                1103.780475756394                                 643.9910400395511                                 1088.2763828830025
65                                                1106.6245885986887                                548.8369778266326                                 1106.5016459990666                                1108.1475068574791                                1107.6519885711036                                673.3514283859839                                 1095.1750660527014
70                                                1110.3629929187955                                580.9214882119379                                 1110.9448646567994                                1112.0189936897527                                1111.4296345214598                                699.0451020298575                                 1101.39222878774
75                                                1114.1488944203788                                609.9872745990136                                 1115.3535188603419                                1115.9253417685063                                1115.2518040202563                                722.4161709807261                                 1107.3280128750534
80                                                1117.921796176835                                 635.8315134340995                                 1119.6309803841068                                1119.7985013729854                                1119.0558023446138                                743.1030075863251                                 1112.8222815397694
85                                                1121.65386448325                                  659.0206730625454                                 1123.8038608019315                                1123.619857278149                                 1122.8161432501952                                763.6864575753137                                 1118.0431153393292
90                                                1125.3560210881792                                679.3324753201114                                 1127.861717920834                                 1127.3967139663814                                1126.5428273586617                                783.1538153738296                                 1122.924560654154
95                                                1129.2178454947261                                697.8319132265051                                 1132.0708685794207                                1131.3322567696368                                1130.4291686865495                                803.8887844995362                                 1127.934328350098
100                                               1133.184327575963                                 714.2099586419122                                 1136.354035841869                                 1135.367527568933                                 1134.4190734662716                                825.1996876829106                                 1132.936703153754
105                                               1137.2489532282425                                728.4300175527358                                 1140.702068848189                                 1139.495544753439                                 1138.5058992733057                                847.004618960888                                  1137.9156141449685
110                                               1141.4117224515653                                740.4920899589757                                 1145.114967598381                                 1143.7163083231549                                1142.6896461076522                                869.3035783334684                                 1142.8710613237413
115                                               1145.736134924026                                 753.8140817400441                                 1149.6724561548413                                1148.0964785035935                                1147.0347450799472                                890.4762289981085                                 1147.9213327025686
120                                               1150.2284501461772                                768.7329140328649                                 1154.382393341858                                 1152.6426263472522                                1151.5475475069966                                910.3628457496767                                 1153.0780885591357
125                                               1154.859379140989                                 783.6720911795695                                 1159.2080067488878                                1157.3240050870231                                1156.1983347921691                                929.7108025720137                                 1158.2867690124344
130                                               1159.6289219084601                                798.6316131801585                                 1164.1492963759315                                1162.1406147229063                                1160.987106935465                                 948.5200994651208                                 1163.5473740624643
135                                               1164.8468969354271                                819.3920365559878                                 1169.5315662136313                                1167.4063102133364                                1166.2252730414666                                965.7168757906721                                 1169.2150393540437
140                                               1170.1870502108682                                842.1080539435671                                 1175.0383499443033                                1172.7951205660615                                1171.5860753912903                                982.4828202831367                                 1175.0092476322156
145                                               1175.5272034863087                                864.8240713311465                                 1180.5451336749747                                1178.1839309187867                                1176.946877741114                                 999.248764775601                                  1180.8034559103876
150                                               1180.8673567617493                                887.5400887187258                                 1186.0519174056467                                1183.5727412715119                                1182.307680090938                                 1016.0147092680655                                1186.5976641885595
155                                               1186.9087195096658                                910.09398323943                                   1192.2457133334924                                1189.6628011108323                                1188.3707695697744                                1031.2791685309044                                1193.0261782426746
160                                               1193.063100766945                                 932.6217473590676                                 1198.5502395031363                                1195.8658859088528                                1194.5470512509141                                1046.3016236150447                                1199.5569275005214
165                                               1199.217482024224                                 955.149511478705                                  1204.8547656727806                                1202.0689707068727                                1200.7233329320534                                1061.324078699185                                 1206.0876767583682
170                                               1205.371863281503                                 977.6772755983424                                 1211.159291842424                                 1208.2720555048932                                1206.8996146131935                                1076.3465337833259                                1212.618426016215
175                                               1212.152384053763                                 996.0160210315465                                 1218.0721450341125                                1215.0990569775058                                1213.701834799017                                 1089.18507363042                                  1219.706248617863
180                                               1218.9490062982059                                1014.2470438785887                                1225.0006416413476                                1221.9421027609155                                1220.5201512879498                                1101.9674530698148                                1226.8083966226109
185                                               1225.7456285426492                                1032.4780667256305                                1231.9291382485835                                1228.7851485443243                                1227.3384677768822                                1114.7498325092092                                1233.9105446273588
190                                               1232.5422507870921                                1050.7090895726724                                1238.8576348558186                                1235.6281943277336                                1234.156784265815                                 1127.5322119486036                                1241.0126926321068
195                                               1239.3388730315346                                1068.9401124197143                                1245.7861314630545                                1242.4712401111428                                1240.9751007547475                                1140.314591387998                                 1248.1148406368548
200                                               1246.03209799554                                  1083.9147655661964                                1252.6040275437576                                1249.20966999011                                  1247.689714629615                                 1151.6763502116678                                1255.0874588668544
205                                               1252.7226640498375                                1098.8056796339333                                1259.4190794798924                                1255.9454096218801                                1254.401661742977                                 1163.001577107901                                 1262.0567461777614
210                                               1259.413230104135                                 1113.6965937016707                                1266.2341314160262                                1262.6811492536508                                1261.113608856339                                 1174.3268040041348                                1269.0260334886689
215                                               1266.1037961584325                                1128.5875077694077                                1273.0491833521605                                1269.416888885421                                 1267.8255559697009                                1185.6520309003686                                1275.9953207995763
220                                               1272.7943622127304                                1143.478421837145                                 1279.8642352882948                                1276.1526285171913                                1274.5375030830628                                1196.9772577966019                                1282.9646081104838
225                                               1279.1091540993348                                1155.549179850998                                 1286.2967561954347                                1282.5110656942365                                1280.8731284475857                                1206.8644098878872                                1289.5360891724304
230                                               1285.4142827764422                                1167.5474162252394                                1292.7194401372099                                1288.8598003611646                                1287.1990765213036                                1216.7145812090498                                1296.0973404595456
235                                               1291.7194114535491                                1179.5456525994805                                1299.1421240789855                                1295.2085350280922                                1293.525024595022                                 1226.5647525302124                                1302.6585917466605
240                                               1298.024540130656                                 1191.5438889737216                                1305.5648080207607                                1301.5572696950203                                1299.8509726687398                                1236.4149238513746                                1309.2198430337753
245                                               1304.329668807763                                 1203.5421253479626                                1311.9874919625354                                1307.906004361948                                 1306.1769207424582                                1246.2650951725373                                1315.7810943208901
250                                               1310.3735589508506                                1214.1773956910497                                1318.1456321274236                                1313.9927164762921                                1312.2413387578185                                1255.3538213347383                                1322.0706552291094
