% Model:              batchmodel_BILLETTA_r_0.0445341_COIL_kr_1.4848_COIL_kw_3.2356_FUNZ_freq_2540.9_FUNZ_I_eff_85.0125.mph
% Version:            COMSOL 5.6.0.401
% Date:               Jan 26 2022, 17:36
% Table:              Tabella delle sonde 1 - 
% Tempo (s)                                       Temperatura (degC), Punto: (BILLETTA_r-0.01[mm], 0.5)Temperatura (degC), Punto: (0, 0.5)               Temperatura (degC), Punto: (BILLETTA_r-5*FUNZ_depth_billetta, 0.5)Temperatura (degC), Punto: (BILLETTA_r-2*FUNZ_depth_billetta, 0.5)Temperatura (degC), Punto: (BILLETTA_r-FUNZ_depth_billetta, 0.5)Temperatura (degC), Punto: (0.5*BILLETTA_r, 0.5)  Temperatura (degC), Punto: (BILLETTA_r-10*FUNZ_depth_billetta, 0.5)
0                                                 20.27613217498066                                 20                                                20.000044147419715                                20.076834590347858                                20.169354047177478                                20                                                20.000000000011937
5                                                 305.2894639055479                                 20.620759897403673                                261.4510592630901                                 294.78635912369896                                302.3125955688422                                 31.4020621788967                                  208.54177385070074
10                                                495.49449423384874                                29.55208373460357                                 442.8473700877663                                 483.8763161497675                                 492.3335890525899                                 75.76390367540608                                 370.98228415355004
15                                                677.6957555492802                                 53.79409769286758                                 616.7135656280269                                 665.0556303879475                                 674.4339216512784                                 138.1424639202798                                 526.6716780535231
20                                                820.0581332428015                                 94.56032912967709                                 753.3222386579788                                 806.4735660388573                                 816.7590423368721                                 207.3589919059075                                 654.6774720242626
25                                                962.3796474726122                                 146.66609440765296                                889.603031521356                                  949.3151908713475                                 959.5896040575684                                 277.49414954797714                                765.2920669123251
30                                                1075.992198196674                                 203.51740927889796                                1021.2286463716672                                1068.5814416725002                                1075.0857055326182                                344.68623783227247                                892.2616607736289
35                                                1099.427456384481                                 260.761172020298                                  1074.2949949406811                                1098.1442296736946                                1100.2191042237469                                407.98161666659587                                982.1735880789996
40                                                1106.2983161961174                                316.3075468402577                                 1092.0728465204666                                1106.7102697613623                                1107.5239128681064                                466.34887713401804                                1028.762613101977
45                                                1114.1357330162045                                368.9249890253707                                 1105.947276513224                                 1115.567719698708                                 1115.6351410641432                                519.0122811420418                                 1060.0857223874978
50                                                1118.27930631019                                  417.83082554944406                                1113.357517559893                                 1120.2835248092724                                1119.9317171973198                                565.9716080474791                                 1077.4791128352272
55                                                1119.2569955752952                                462.8956170617299                                 1116.414360479303                                 1121.6040129284825                                1120.9973444095822                                607.5613159533294                                 1087.1462354449914
60                                                1118.1661537918503                                504.0256464232108                                 1117.968237395235                                 1120.8976472109166                                1120.000450466619                                 644.1401303487504                                 1095.8212434846732
65                                                1119.4578832677203                                541.8740056783134                                 1120.7871137066459                                1122.4374293464734                                1121.3574190238555                                676.9183673793246                                 1103.0598358188295
70                                                1122.4456234310646                                576.3648884191858                                 1124.6646774649375                                1125.5914054200116                                1124.394296277006                                 705.9177050361825                                 1109.5489954847958
75                                                1127.5148057061347                                607.5781290012803                                 1130.293924220004                                 1130.7903246014348                                1129.5092871747875                                731.5914494639139                                 1116.6107036838348
80                                                1130.8821064807998                                635.9041778837692                                 1134.4046954119253                                1134.3005962803882                                1132.9212079526892                                757.7729838048361                                 1122.7595209480687
85                                                1133.3266005092987                                661.253430257917                                  1137.6427098152294                                1136.8871778790754                                1135.4076932628923                                783.6080071992666                                 1128.2112741275323
90                                                1134.8482877916304                                683.625886123724                                  1140.0079674299154                                1138.5500693974964                                1136.9687431053967                                809.096519647204                                  1132.9659632222256
95                                                1136.7168851084143                                703.0121888487583                                 1142.420642568689                                 1140.5166887246955                                1138.866829240496                                 833.5934432740347                                 1136.8462906943464
100                                               1138.3062527891575                                719.4169525003751                                 1144.4269666039713                                1142.181755183647                                 1140.4793847587312                                857.4168874833828                                 1139.939687869994
105                                               1139.6080641025605                                732.8402384388442                                 1146.0209050843278                                1143.537219436807                                 1141.7981304412406                                880.5710826597007                                 1142.247317456457
110                                               1142.5221681223488                                747.3249390450792                                 1149.2559813714906                                1146.5229388171142                                1144.737884447888                                 902.7644771191027                                 1146.270376266179
115                                               1146.224907531156                                 761.1183056724022                                 1153.2419144601613                                1150.2979108949444                                1148.4684997893105                                924.1234696798648                                 1150.9244997118708
120                                               1150.6418425601983                                774.0619299618451                                 1157.8982433251158                                1154.7861283003776                                1152.914950178917                                 944.6594839020164                                 1156.111686054879
125                                               1155.6373756503576                                797.0249195401074                                 1163.180942178681                                 1159.8624573626084                                1157.9441561609638                                964.2801199148197                                 1161.9607874677672
130                                               1160.651776032284                                 821.0337968811453                                 1168.4896578463854                                1164.9586546138462                                1162.9925550358666                                983.8542064652614                                 1167.8469246095942
135                                               1165.6661764142104                                845.0426742221831                                 1173.7983735140901                                1170.054851865084                                 1168.040953910771                                 1003.4282930157038                                1173.7330617514217
140                                               1171.4955400200438                                872.1768462853887                                 1179.9051144216933                                1175.9687890327104                                1173.9074763451617                                1021.6465078569971                                1180.3109880768989
145                                               1177.4485767672104                                899.7852913029391                                 1186.1329580801766                                1182.0068207131776                                1179.8981515113974                                1039.658965053532                                 1186.9938955094653
150                                               1183.4016135143775                                927.3937363204897                                 1192.3608017386605                                1188.0448523936448                                1185.8888266776335                                1057.6714222500664                                1193.6768029420327
155                                               1190.272200394601                                 950.905545742448                                  1199.4839503490002                                1195.0010721708927                                1192.7990650247762                                1073.184331993839                                 1201.1618094853757
160                                               1197.3344558524177                                973.5616021224338                                 1206.7941207039307                                1202.1490937910403                                1199.901392458436                                 1088.1751071014337                                1208.8143678497177
165                                               1204.3967113102344                                996.2176585024196                                 1214.1042910588612                                1209.2971154111879                                1207.0037198920954                                1103.165882209029                                 1216.46692621406
170                                               1211.4589667680511                                1018.8737148824056                                1221.4144614137922                                1216.445137031336                                 1214.1060473257544                                1118.1566573166242                                1224.1194845784016
175                                               1218.5212222258679                                1041.5297712623915                                1228.7246317687232                                1223.5931586514835                                1221.2083747594138                                1133.1474324242195                                1231.772042942744
180                                               1225.746513572722                                 1059.9746945702432                                1236.186722901843                                 1230.9026362808568                                1228.473449719736                                 1146.339801080293                                 1239.5434659013295
185                                               1233.0058617583504                                1077.5399472672875                                1243.6805490196944                                1238.2458407252748                                1235.7725212823352                                1159.1564976133077                                1247.3397186832503
190                                               1240.2652099439788                                1095.1051999643323                                1251.1743751375457                                1245.5890451696932                                1243.0715928449345                                1171.9731941463233                                1255.1359714651708
195                                               1247.5245581296072                                1112.670452661377                                 1258.668201255396                                 1252.9322496141112                                1250.3706644075337                                1184.7898906793384                                1262.9322242470912
200                                               1254.783906315235                                 1130.2357053584215                                1266.1620273732474                                1260.2754540585288                                1257.669735970133                                 1197.6065872123536                                1270.7284770290116
205                                               1261.7764199026865                                1144.9941873214575                                1273.3777585670741                                1267.34952743052                                  1264.7012346010038                                1209.022640917728                                 1278.2193011882955
210                                               1268.7131939658952                                1159.1663582647057                                1280.5353980484115                                1274.3673815639322                                1271.6768394759051                                1220.1461120068298                                1285.6463238531992
215                                               1275.6499680291035                                1173.3385292079543                                1287.6930375297497                                1281.385235697344                                 1278.652444350807                                 1231.2695830959324                                1293.0733465181033
220                                               1282.5867420923123                                1187.5107001512029                                1294.850677011087                                 1288.4030898307565                                1285.6280492257088                                1242.393054185035                                 1300.500369183007
225                                               1289.523516155521                                 1201.6828710944515                                1302.0083164924245                                1295.4209439641681                                1292.6036541006097                                1253.5165252741372                                1307.9273918479112
230                                               1296.2952072803027                                1214.6138147362421                                1308.9957662260454                                1302.272805925994                                 1299.4139261791602                                1263.990562388154                                 1315.170943795642
235                                               1302.9698367172969                                1226.8149699580135                                1315.883151687035                                 1309.0270716099294                                1306.1269896641797                                1274.082760177474                                 1322.3066228302919
240                                               1309.5759710786365                                1238.5011236979326                                1322.6999231902369                                1315.7124649654502                                1312.7714544042155                                1283.9054992954111                                1329.3661774587913
245                                               1316.1136103643207                                1249.6722759559993                                1329.4460807356504                                1322.3289859925567                                1319.3473203992676                                1293.4587797419663                                1336.3496076811407
250                                               1322.5827545743505                                1260.3284267322142                                1336.1216243232757                                1328.8766346912485                                1325.8545876493363                                1302.742601517139                                 1343.2569134973405
