% Model:              batchmodel_BILLETTA_r_0.0445341_COIL_kr_1.4848_COIL_kw_3.7744_FUNZ_freq_6066_FUNZ_I_eff_127.5152.mph
% Version:            COMSOL 5.6.0.401
% Date:               Jan 26 2022, 18:06
% Table:              Tabella delle sonde 1 - 
% Tempo (s)                                       Temperatura (degC), Punto: (BILLETTA_r-0.01[mm], 0.5)Temperatura (degC), Punto: (0, 0.5)               Temperatura (degC), Punto: (BILLETTA_r-5*FUNZ_depth_billetta, 0.5)Temperatura (degC), Punto: (BILLETTA_r-2*FUNZ_depth_billetta, 0.5)Temperatura (degC), Punto: (BILLETTA_r-FUNZ_depth_billetta, 0.5)Temperatura (degC), Punto: (0.5*BILLETTA_r, 0.5)  Temperatura (degC), Punto: (BILLETTA_r-10*FUNZ_depth_billetta, 0.5)
0                                                 21.017689764352895                                20                                                20.006817504513492                                20.401100715695975                                20.721324058457128                                20                                                20.00000000097566
5                                                 1112.504841462745                                 21.140685640926222                                1030.2944526280826                                1100.4271948475212                                1110.1538517785025                                51.229077103144334                                827.1623692306058
10                                                1217.4118281342862                                43.09396047855057                                 1201.8069256435938                                1217.135781471115                                 1218.2405572635503                                157.70115031548352                                1135.4311905839777
15                                                1240.3120269030305                                102.44530153688407                                1235.04510192929                                  1241.748563541143                                 1241.60334935317                                  267.5448666970468                                 1200.4436598905081
20                                                1267.1188419235423                                176.20969572078792                                1265.8380920691516                                1269.2911510496047                                1268.6375411820068                                363.50775617873546                                1242.8988654001087
25                                                1269.042690245521                                 250.95464153472233                                1269.3395507431287                                1271.4513308329188                                1270.6218033357154                                446.37707559152466                                1252.1683518224586
30                                                1283.6247421118023                                321.70049721929604                                1285.0675974458627                                1286.2682889802795                                1285.2867029333365                                519.713181304944                                  1271.279776779495
35                                                1309.659270369967                                 383.0371182709099                                 1311.7959516421497                                1312.5222807841105                                1311.421484699103                                 579.6973203126886                                 1299.3682505803395
40                                                1339.2243111077792                                440.238773748324                                  1342.043502352175                                 1342.324682014711                                 1341.0990041173332                                635.9155090250314                                 1330.7249349830358
45                                                1369.2927112889984                                492.85940834514565                                1372.842364154791                                 1372.6431428796432                                1371.2853569530926                                688.3439630025252                                 1362.7002030255403
49.8527499530729                                  1394.2295519721001                                540.2518827744993                                 1398.6091952534775                                1397.8231526687987                                1396.330060577598                                 736.7071790703687                                 1390.1340225336521
