% Model:              batchmodel_BILLETTA_r_0.0445341_COIL_kr_1.4848_COIL_kw_3.2356_FUNZ_freq_4639.7_FUNZ_I_eff_174.7421.mph
% Version:            COMSOL 5.6.0.401
% Date:               Jan 26 2022, 17:43
% Table:              Tabella delle sonde 1 - 
% Tempo (s)                                       Temperatura (degC), Punto: (BILLETTA_r-0.01[mm], 0.5)Temperatura (degC), Punto: (0, 0.5)               Temperatura (degC), Punto: (BILLETTA_r-5*FUNZ_depth_billetta, 0.5)Temperatura (degC), Punto: (BILLETTA_r-2*FUNZ_depth_billetta, 0.5)Temperatura (degC), Punto: (BILLETTA_r-FUNZ_depth_billetta, 0.5)Temperatura (degC), Punto: (0.5*BILLETTA_r, 0.5)  Temperatura (degC), Punto: (BILLETTA_r-10*FUNZ_depth_billetta, 0.5)
0                                                 21.127056130259007                                20                                                20.035045072973276                                20.512007213353286                                20.82919451570143                                 20                                                20.000000006762434
5                                                 1291.3978992392445                                21.25202552101223                                 1249.7013063261425                                1287.6896222155865                                1291.6500453324534                                60.54741009968694                                 1094.242334670323
10                                                1365.0860347214289                                49.17182659571432                                 1356.939652383348                                 1367.0212916175687                                1366.8966483516142                                187.42379486743778                                1305.1575295746256
13.33257536161113                                 1395.5750870921174                                89.83792509317925                                 1394.1446354191803                                1398.6989713467901                                1397.7450083864883                                273.3544669783839                                 1362.1469814006145
