% Model:              batchmodel_BILLETTA_r_0.0445341_COIL_kr_1.4848_COIL_kw_3.7744_FUNZ_freq_6066_FUNZ_I_eff_162.3068.mph
% Version:            COMSOL 5.6.0.401
% Date:               Jan 26 2022, 18:07
% Table:              Tabella delle sonde 1 - 
% Tempo (s)                                       Temperatura (degC), Punto: (BILLETTA_r-0.01[mm], 0.5)Temperatura (degC), Punto: (0, 0.5)               Temperatura (degC), Punto: (BILLETTA_r-5*FUNZ_depth_billetta, 0.5)Temperatura (degC), Punto: (BILLETTA_r-2*FUNZ_depth_billetta, 0.5)Temperatura (degC), Punto: (BILLETTA_r-FUNZ_depth_billetta, 0.5)Temperatura (degC), Punto: (0.5*BILLETTA_r, 0.5)  Temperatura (degC), Punto: (BILLETTA_r-10*FUNZ_depth_billetta, 0.5)
0                                                 21.339533757052266                                20                                                20.032993509400285                                20.598056976358578                                20.98789729584729                                 20                                                20.000000006624248
5                                                 1283.5576015629354                                21.243336223253664                                1251.145953757005                                 1280.9065368529755                                1283.9033761364335                                60.65636196125138                                 1126.6642552545359
10                                                1340.2652231390434                                49.3629036156276                                  1333.4105337618034                                1341.8512794131134                                1341.76498479899                                  185.45005537897674                                1291.1387791077213
15                                                1373.2551735900847                                115.44229495304626                                1371.760903062328                                 1375.8032303348173                                1375.0531129763272                                308.3813234312739                                 1346.3696160802733
19.522781521534846                                1397.4618559083956                                189.87316300813427                                1398.9499493129733                                1400.5850836678856                                1399.4486372430465                                406.78254141978744                                1382.0416623968463
