% Model:              batchmodel_BILLETTA_r_0.0445341_COIL_kr_1.4848_COIL_kw_3.2356_FUNZ_freq_6066_FUNZ_I_eff_61.5962.mph
% Version:            COMSOL 5.6.0.401
% Date:               Jan 26 2022, 17:44
% Table:              Tabella delle sonde 1 - 
% Tempo (s)                                       Temperatura (degC), Punto: (BILLETTA_r-0.01[mm], 0.5)Temperatura (degC), Punto: (0, 0.5)               Temperatura (degC), Punto: (BILLETTA_r-5*FUNZ_depth_billetta, 0.5)Temperatura (degC), Punto: (BILLETTA_r-2*FUNZ_depth_billetta, 0.5)Temperatura (degC), Punto: (BILLETTA_r-FUNZ_depth_billetta, 0.5)Temperatura (degC), Punto: (0.5*BILLETTA_r, 0.5)  Temperatura (degC), Punto: (BILLETTA_r-10*FUNZ_depth_billetta, 0.5)
0                                                 20.438511945096764                                20                                                20.00003959759715                                 20.10163228239952                                 20.26249142400121                                 20                                                20.000000000009322
5                                                 315.1041284524996                                 20.597140972264583                                283.0721836836989                                 307.0450893256516                                 312.7813765327047                                 30.639866390008535                                244.85399312522975
10                                                513.5381687690829                                 27.91455718966182                                 474.74662358202056                                504.82994500012285                                511.1443410882057                                 72.9913295738404                                  422.57399668922255
15                                                700.954774591347                                  51.13542600134542                                 654.8570391283719                                 690.995999804272                                  698.3360828608559                                 135.38360517823708                                588.5109735287116
20                                                851.1588145320164                                 92.05960661022806                                 797.7409731029803                                 839.9453421835536                                 848.3663367835437                                 206.06694925206455                                722.2910858450286
25                                                1002.1963145216065                                145.00096084738794                                952.7762619074564                                 993.3375870548547                                 1000.3150636485392                                276.6024660503865                                 860.1945329765641
30                                                1050.480478099943                                 203.05250906667948                                1021.3030946377179                                1046.0258346214596                                1049.851715718616                                 344.0392976050067                                 953.1501511967157
35                                                1072.3050212859825                                258.71748313100613                                1052.515717194558                                 1070.3541546843458                                1072.4350340836913                                402.4740257500408                                 996.2798709926466
40                                                1078.8307491225623                                311.9021242625262                                 1066.6626318591084                                1078.3155089742154                                1079.3484762069752                                455.9638328551622                                 1023.6405852114075
45                                                1083.332561237758                                 361.40615628020464                                1074.9944648959745                                1083.500408657775                                 1084.0341119543082                                503.4674982911648                                 1041.2653904001659
50                                                1085.9683697541727                                407.301297283965                                  1079.58993687873                                  1086.4501240126424                                1086.7522689625762                                546.0203682531026                                 1052.4406010411808
55                                                1090.9631948932124                                447.5554642663151                                 1086.3819399205113                                1091.7797130891254                                1091.8419143162332                                582.1844935175621                                 1063.6620422257142
60                                                1096.7767126719918                                485.493838098373                                  1093.9226159326768                                1097.9256760574867                                1097.7515275742649                                615.7708457515987                                 1075.151148180918
65                                                1099.6695277255653                                518.6783449378387                                 1098.0215277212337                                1101.0399142296233                                1100.7060238215358                                644.1138525149865                                 1082.1414358753082
70                                                1101.676927661391                                 550.4217103469636                                 1101.0770638697418                                1103.2350807878424                                1102.7646722122413                                670.8673317625402                                 1087.7679005192567
75                                                1104.2884586451132                                578.9387408933299                                 1104.476756051065                                 1105.9916825074624                                1105.417408672481                                 694.619369915358                                  1093.125319211842
80                                                1106.9848186520585                                607.0027458321697                                 1107.9247728801643                                1108.82711811008                                  1108.1535639717672                                717.9499609049899                                 1098.4449598340311
85                                                1110.1208220732697                                630.1071868812943                                 1111.569433822434                                 1112.0629334210275                                1111.3200531219381                                737.4678171670097                                 1103.3321138797078
90                                                1113.2701625797185                                652.9551520229438                                 1115.2196543204764                                1115.3108143862646                                1114.4995770081332                                756.9719933804259                                 1108.2041082012456
95                                                1116.5298147969675                                672.9489009692963                                 1118.913052567963                                 1118.657935758179                                 1117.7867740699462                                777.0679971232101                                 1112.9366156193528
100                                               1119.865759704087                                 690.9686452570959                                 1122.6363129817037                                1122.0736927945613                                1121.148438984132                                 797.5733147441646                                 1117.572652490614
105                                               1123.2779973010765                                707.0143848863424                                 1126.389435561698                                 1125.5580854954123                                1124.5845717506904                                818.4879462432888                                 1122.1122188150284
110                                               1126.7291630059085                                721.4680361123267                                 1130.1441405451033                                1129.0751440699191                                1128.0581059040728                                839.3834414922479                                 1126.5532792661643
115                                               1130.1372325295893                                735.1679974288593                                 1133.8383470169406                                1132.5459061329498                                1131.4876715930168                                859.3192488981389                                 1130.8913658105403
120                                               1133.5636534400942                                747.4861920909733                                 1137.5185621922064                                1136.0295254618486                                1134.9342261208772                                878.999972044228                                  1135.1298256248829
125                                               1137.0084257374233                                758.4226200986692                                 1141.1847860709004                                1139.5260020566157                                1138.397769487654                                 898.4256109305151                                 1139.2686587091907
130                                               1140.5938583104835                                770.7957391298268                                 1144.979387298938                                 1143.1616110909622                                1142.001833830016                                 917.0997643418356                                 1143.50061318268
135                                               1144.3858603485069                                786.1243452596003                                 1148.9790847649274                                1147.0043990854101                                1145.8129875147006                                934.7549341272653                                 1147.9295561671643
140                                               1148.3023989770932                                802.5180919501837                                 1153.0883914658152                                1150.9696729685297                                1149.748377232006                                 951.7240578099796                                 1152.4262110222016
145                                               1152.343474196242                                 819.9769792015767                                 1157.3073074016015                                1155.057432740322                                 1153.8080029819334                                968.0071353899783                                 1156.9905777477916
150                                               1156.5428707607753                                839.3290920625733                                 1161.677271588127                                 1159.3029990898035                                1158.026121248848                                 983.6978563111317                                 1161.681395514212
155                                               1160.8952407873717                                860.4433506350384                                 1166.19172452769                                  1163.7007810063355                                1162.3973094780395                                998.7813902093643                                 1166.4893663339353
160                                               1165.3919417963234                                883.1079224439651                                 1170.8400657037118                                1168.2417431028093                                1166.912804516643                                 1013.2337703836644                                1171.3994641370678
165                                               1170.032973787629                                 907.3228074893531                                 1175.622295116193                                 1172.9258853792262                                1171.572606364659                                 1027.054996834032                                 1176.4116889236102
170                                               1174.893882989183                                 929.4605141003959                                 1180.6320159918264                                1177.8323266613015                                1176.4533661827927                                1040.7820225803139                                1181.66334374582
175                                               1179.9335558517469                                951.4951852830003                                 1185.8182878538096                                1182.9180091309622                                1181.5133690984735                                1054.1226286059477                                1187.0797059344522
180                                               1185.1502681191064                                973.509614384085                                  1191.1789743155919                                1188.1811269915365                                1186.750865636659                                 1067.0645595726219                                1192.657641704438
185                                               1190.5440197912621                                995.5038014036489                                 1196.7140753771732                                1193.621680243025                                 1192.1658557973506                                1079.607815480335                                 1198.3971510557767
190                                               1196.1148108682137                                1017.477746341693                                 1202.4235910385532                                1199.2396688854274                                1197.7583395805473                                1091.7523963290882                                1204.2982339884688
195                                               1201.8740424622024                                1032.7566313505258                                1208.3166449100222                                1205.0440056714178                                1203.5382730723563                                1102.949200712761                                 1210.3814687372246
200                                               1207.6360904357784                                1047.8422929819735                                1214.212412458789                                 1210.8510924719922                                1209.3209875548032                                1114.1245329573326                                1216.467567890778
205                                               1213.3981384093545                                1062.9279546134208                                1220.1081800075553                                1216.658179272567                                 1215.1037020372491                                1125.2998652019032                                1222.5536670443312
210                                               1219.16018638293                                  1078.013616244868                                 1226.0039475563217                                1222.4652660731417                                1220.8864165196956                                1136.4751974464743                                1228.639766197885
215                                               1224.9222343565061                                1093.0992778763152                                1231.8997151050885                                1228.272352873716                                 1226.669131002142                                 1147.6505296910454                                1234.7258653514382
220                                               1230.7150998218249                                1105.2373719614416                                1237.8139552203634                                1234.1081754486772                                1232.4821481109398                                1157.5281110128553                                1240.7984495134483
225                                               1236.5088560825902                                1117.2902650908836                                1243.728729294673                                 1239.9448286459742                                1238.2960411327354                                1167.3681801768867                                1246.870643017678
230                                               1242.302612343356                                 1129.3431582203257                                1249.6435033689822                                1245.7814818432716                                1244.109934154531                                 1177.208249340918                                 1252.9428365219078
235                                               1248.0963686041214                                1141.3960513497673                                1255.5582774432914                                1251.6181350405686                                1249.9238271763265                                1187.0483185049497                                1259.0150300261375
240                                               1253.8901248648863                                1153.4489444792093                                1261.473051517601                                 1257.4547882378656                                1255.7377201981221                                1196.8883876689815                                1265.0872235303673
245                                               1259.4381630105304                                1163.3713337436675                                1267.1311813857                                   1263.0435604814243                                1261.3052169771845                                1205.4168091182019                                1270.8762601507397
250                                               1264.9790985476989                                1173.232139698317                                 1272.7818928210422                                1268.625167598545                                 1266.8655915461427                                1213.907316715724                                 1276.6571119757737
