% Model:              batchmodel_BILLETTA_r_0.0445341_COIL_kr_1.4848_COIL_kw_3.2356_FUNZ_freq_7167.5_FUNZ_I_eff_174.7421.mph
% Version:            COMSOL 5.6.0.401
% Date:               Jan 26 2022, 17:52
% Table:              Tabella delle sonde 1 - 
% Tempo (s)                                       Temperatura (degC), Punto: (BILLETTA_r-0.01[mm], 0.5)Temperatura (degC), Punto: (0, 0.5)               Temperatura (degC), Punto: (BILLETTA_r-5*FUNZ_depth_billetta, 0.5)Temperatura (degC), Punto: (BILLETTA_r-2*FUNZ_depth_billetta, 0.5)Temperatura (degC), Punto: (BILLETTA_r-FUNZ_depth_billetta, 0.5)Temperatura (degC), Punto: (0.5*BILLETTA_r, 0.5)  Temperatura (degC), Punto: (BILLETTA_r-10*FUNZ_depth_billetta, 0.5)
0                                                 21.7160362429654                                  20                                                20.05768711508881                                 20.80170242512247                                 21.291070870040528                                20                                                20.00000002043373
5                                                 1363.5688408995438                                21.360106953022694                                1343.9363689219376                                1363.036352097019                                 1364.4874344372947                                66.20275163432086                                 1260.977963539668
8.045516369336086                                 1398.0085521583005                                33.83821265854999                                 1390.8234757592654                                1399.5334940673033                                1399.4964489692825                                145.93967319347644                                1348.2342704015127
