% Model:              batchmodel_BILLETTA_r_0.0445341_COIL_kr_1.4848_COIL_kw_3.2356_FUNZ_freq_4639.7_FUNZ_I_eff_162.3068.mph
% Version:            COMSOL 5.6.0.401
% Date:               Jan 26 2022, 17:41
% Table:              Tabella delle sonde 1 - 
% Tempo (s)                                       Temperatura (degC), Punto: (BILLETTA_r-0.01[mm], 0.5)Temperatura (degC), Punto: (0, 0.5)               Temperatura (degC), Punto: (BILLETTA_r-5*FUNZ_depth_billetta, 0.5)Temperatura (degC), Punto: (BILLETTA_r-2*FUNZ_depth_billetta, 0.5)Temperatura (degC), Punto: (BILLETTA_r-FUNZ_depth_billetta, 0.5)Temperatura (degC), Punto: (0.5*BILLETTA_r, 0.5)  Temperatura (degC), Punto: (BILLETTA_r-10*FUNZ_depth_billetta, 0.5)
0                                                 21.036027051848578                                20                                                20.024456729040253                                20.455267825433737                                20.753815175073385                                20                                                20.000000003720004
5                                                 1235.9745181541853                                20.978074967657108                                1180.1224151033093                                1229.852898611785                                 1235.522540722976                                 54.97141533962912                                 982.2080203728832
10                                                1341.4702933001358                                43.7967301509791                                  1329.6598079234113                                1342.7313460968317                                1343.064486622647                                 174.82610172089244                                1265.9095995205807
15                                                1354.9364831926641                                105.39058455585666                                1352.471912031851                                 1357.6968808891556                                1356.9299182587115                                299.0070276023132                                 1320.1299134800456
20                                                1371.8308528720863                                188.76811249550894                                1372.6311761422194                                1375.1675588966718                                1374.0014995695951                                406.16363224754434                                1350.6184713258767
24.01490141206842                                 1390.9637603380238                                256.64349296821774                                1393.8911279542235                                1394.7256085379881                                1393.281160823335                                 482.61822816215783                                1377.875926418782
