% Model:              batchmodel_BILLETTA_r_0.0445341_COIL_kr_1.4848_COIL_kw_3.2356_FUNZ_freq_6066_FUNZ_I_eff_174.7421.mph
% Version:            COMSOL 5.6.0.401
% Date:               Jan 26 2022, 17:46
% Table:              Tabella delle sonde 1 - 
% Tempo (s)                                       Temperatura (degC), Punto: (BILLETTA_r-0.01[mm], 0.5)Temperatura (degC), Punto: (0, 0.5)               Temperatura (degC), Punto: (BILLETTA_r-5*FUNZ_depth_billetta, 0.5)Temperatura (degC), Punto: (BILLETTA_r-2*FUNZ_depth_billetta, 0.5)Temperatura (degC), Punto: (BILLETTA_r-FUNZ_depth_billetta, 0.5)Temperatura (degC), Punto: (0.5*BILLETTA_r, 0.5)  Temperatura (degC), Punto: (BILLETTA_r-10*FUNZ_depth_billetta, 0.5)
0                                                 21.461731057513134                                20                                                20.047620525635693                                20.67506426921318                                 21.089984106185227                                20                                                20.00000001243484
5                                                 1332.8780114773099                                21.283947164370147                                1306.1013946783778                                1331.2933995179028                                1333.5749790964464                                63.80088004008002                                 1200.4911035167333
10                                                1393.1298282735265                                46.47934739448874                                 1388.8613617662431                                1395.3429111885484                                1394.8830325688486                                194.78423932235916                                1352.9761979190225
11.043595789225307                                1398.2062667030027                                57.73876776298306                                 1395.459548036456                                 1400.6848588441217                                1400.0357403686435                                223.17850569398541                                1363.9203464090365
