% Model:              batchmodel_BILLETTA_r_0.0445341_COIL_kr_1.4848_COIL_kw_3.2356_FUNZ_freq_8940.8_FUNZ_I_eff_127.5152.mph
% Version:            COMSOL 5.6.0.401
% Date:               Jan 26 2022, 17:54
% Table:              Tabella delle sonde 1 - 
% Tempo (s)                                       Temperatura (degC), Punto: (BILLETTA_r-0.01[mm], 0.5)Temperatura (degC), Punto: (0, 0.5)               Temperatura (degC), Punto: (BILLETTA_r-5*FUNZ_depth_billetta, 0.5)Temperatura (degC), Punto: (BILLETTA_r-2*FUNZ_depth_billetta, 0.5)Temperatura (degC), Punto: (BILLETTA_r-FUNZ_depth_billetta, 0.5)Temperatura (degC), Punto: (0.5*BILLETTA_r, 0.5)  Temperatura (degC), Punto: (BILLETTA_r-10*FUNZ_depth_billetta, 0.5)
0                                                 21.4745546816323                                  20                                                20.013221785477015                                20.60379943870288                                 21.072384406586593                                19.999999999999943                                20.00000000400928
5                                                 1205.006018717776                                 21.18575638050146                                 1169.9583042284958                                1201.3182149486174                                1204.8099019989745                                56.2663718714096                                  1043.129456790024
10                                                1250.220072025365                                 45.73910145787585                                 1241.8279169364005                                1250.782425812606                                 1251.1319831741835                                169.41296262775785                                1200.4016328554785
15                                                1188.9736638399881                                106.88068971194275                                1182.6270895002503                                1189.5913178891628                                1189.8109884884643                                280.749697985451                                  1152.0712220608411
20                                                1256.5283702836032                                183.7582331805471                                 1255.1698965340188                                1258.1840565410253                                1257.7175485178882                                372.80028804146116                                1237.1661674932843
25                                                1300.8109618156554                                258.9035881441406                                 1300.7870815059168                                1302.822406912111                                 1302.1495415352924                                452.867059712137                                  1285.9993924843875
30                                                1345.5771473054087                                328.11349625921616                                1346.334686819383                                 1347.8701018696852                                1347.0513400863579                                523.535861268623                                  1332.8418729935152
32.58875589333508                                 1369.6747779562215                                362.22818056358426                                1370.8888895045402                                1372.1284775574827                                1371.2253244376761                                558.0140569977998                                 1358.080894610006
