% Model:              batchmodel_BILLETTA_r_0.0445341_COIL_kr_1.4848_COIL_kw_3.2356_FUNZ_freq_2540.9_FUNZ_I_eff_61.5962.mph
% Version:            COMSOL 5.6.0.401
% Date:               Jan 26 2022, 17:36
% Table:              Tabella delle sonde 1 - 
% Tempo (s)                                       Temperatura (degC), Punto: (BILLETTA_r-0.01[mm], 0.5)Temperatura (degC), Punto: (0, 0.5)               Temperatura (degC), Punto: (BILLETTA_r-5*FUNZ_depth_billetta, 0.5)Temperatura (degC), Punto: (BILLETTA_r-2*FUNZ_depth_billetta, 0.5)Temperatura (degC), Punto: (BILLETTA_r-FUNZ_depth_billetta, 0.5)Temperatura (degC), Punto: (0.5*BILLETTA_r, 0.5)  Temperatura (degC), Punto: (BILLETTA_r-10*FUNZ_depth_billetta, 0.5)
0                                                 20.19054125177456                                 20                                                20.000005595774212                                20.039368405732603                                20.105750799810153                                20                                                20.00000000000182
5                                                 192.39853934741586                                20.390795340881823                                165.87991395342914                                185.37166338163712                                190.33160411713857                                26.83085563859902                                 135.4342222354179
10                                                258.97011735512604                                25.83448456738131                                 233.5933677376317                                 252.240357837101                                  256.9476884916229                                 52.83414690110044                                 204.70422650184844
15                                                358.7833964632497                                 42.31297161845049                                 326.858502253765                                  350.9859455723587                                 356.57671646656684                                90.41608498192323                                 287.2773646571469
20                                                446.528312850111                                  68.22851397143222                                 411.7749637060091                                 438.4943018802942                                 444.30502646462514                                133.27287694643053                                366.68753391875714
25                                                533.7249927606065                                 101.20416309524387                                496.2371526917076                                 525.3631285961036                                 531.4661560198278                                 179.54253972781885                                445.348650737487
30                                                618.0483307338576                                 139.17800282031436                                577.958985421713                                  609.3454942749089                                 615.7651595095984                                 227.66447823541813                                521.6600564601537
35                                                699.8207155849792                                 179.62348611099407                                656.7175546203985                                 690.7360326855177                                 697.5259332229498                                 276.26198625423297                                594.8299292596834
40                                                771.3065430735311                                 220.7743551537738                                 724.8283022760255                                 761.9378292157634                                 769.0668097555014                                 322.5730632228458                                 656.3720212877441
45                                                839.5285623950243                                 262.02028317655015                                789.58928504128                                   829.9115649524093                                 837.3652315759235                                 368.1038297067797                                 714.2565607585086
50                                                906.0788481851006                                 302.01371832871996                                856.1954845344006                                 897.009809784482                                  904.2141685967155                                 411.2117252673918                                 774.9292527410408
55                                                971.6908269583824                                 341.30415696446516                                923.8373633213363                                 963.616660956343                                  970.2495418929831                                 452.95971702430654                                837.1668729950471
60                                                1013.9878042936567                                378.1434844198433                                 972.4823922188235                                 1007.6929450888252                                1013.1382989008551                                491.14091738261993                                889.7200397370729
65                                                1049.7906225880092                                414.3000795204921                                 1015.8360397373891                                1045.4935664886707                                1049.5797988568365                                528.3286238880631                                 939.5756994041598
70                                                1058.5599050996534                                447.21724558080086                                1032.8819420226932                                1056.01509964787                                  1058.8407232584873                                560.9125127027145                                 967.3509070204356
75                                                1064.9863051944972                                479.79752717001486                                1047.5144585358776                                1064.143425573448                                 1065.73819098263                                  593.0002956413065                                 992.9882217537264
80                                                1068.853730959118                                 510.79406730532025                                1056.621781699072                                 1069.028793348582                                 1069.884613586467                                 622.4429999903319                                 1011.4332528868791
85                                                1071.2209454928761                                540.5860363313373                                 1062.3553540613607                                1071.9916436726876                                1072.4128660187512                                649.9559805973572                                 1025.1937579548103
90                                                1073.7110786167195                                568.6175647543915                                 1067.4591384364408                                1074.968469549261                                 1075.0376329327155                                675.0747797313965                                 1036.1866232403245
95                                                1075.9204398514225                                594.9391087172005                                 1071.4477840719223                                1077.5067557945627                                1077.3394428661122                                698.1529878231614                                 1044.6243019003596
100                                               1078.2777136521727                                619.1738201789625                                 1075.5624431590422                                1080.1942281484726                                1079.7894750808182                                719.6917335008508                                 1052.8188957806628
105                                               1080.615775768783                                 641.468614768391                                  1079.3192478392434                                1082.8017595166812                                1082.2040385661317                                739.495649880451                                  1059.8690232644049
110                                               1082.9346262012536                                661.8234924854858                                 1082.7181981125254                                1085.329349899188                                 1084.583133322055                                 757.5647369619618                                 1065.7746843515847
115                                               1085.1513071041586                                680.1433147408013                                 1085.9000607352914                                1087.7330041713221                                1086.8541499871872                                775.8491066505004                                 1071.2015207465597
120                                               1087.2512083411657                                696.4113261840121                                 1088.8896268709532                                1090.004974123544                                 1089.0043009503797                                794.6922032659328                                 1076.266762061552
125                                               1089.2715283917119                                710.6701871668319                                 1091.623776397878                                 1092.1649872660355                                1091.0661444081857                                813.2195923622659                                 1080.6719330995984
130                                               1091.2122672557975                                722.9198976892609                                 1094.1025093160656                                1094.2130435987974                                1093.039680360605                                 831.4312739395001                                 1084.4170338607
135                                               1093.146788542489                                 735.2794301823615                                 1096.6194232073813                                1096.262928173442                                 1095.0091648156522                                849.1362642735295                                 1088.2979394427225
140                                               1095.041663171111                                 746.7832473553076                                 1099.0407365229803                                1098.2627933543608                                1096.936205429699                                 866.4215875770627                                 1091.9519990274848
145                                               1096.891565937054                                 757.2775405023455                                 1101.3451380539868                                1100.2043798875561                                1098.814686357463                                 883.3011066823836                                 1095.321442859727
150                                               1098.705433468877                                 767.5155473230424                                 1103.5533855212711                                1102.0988115455543                                1100.65411172433                                  899.6913966660246                                 1098.4527854498824
155                                               1100.5241791950643                                780.9457200553892                                 1105.7605113548752                                1103.9970148795423                                1102.4979930572404                                915.2105238247224                                 1101.558978257623
160                                               1102.3209443331084                                795.3042242548316                                 1107.9041288161598                                1105.865557708134                                 1104.3177659781413                                930.1092193889868                                 1104.5002232471493
165                                               1104.095728883009                                 810.5910599213693                                 1109.9842379051256                                1107.7044400313307                                1106.1134304870325                                944.3874833588176                                 1107.2765204184602
170                                               1105.874618497357                                 827.2563394234197                                 1112.0461488661995                                1109.5434908764332                                1107.912164447297                                 958.0737607422631                                 1109.9776616624163
175                                               1107.6786872984103                                845.6637003218626                                 1114.1264670182363                                1111.4068085697545                                1109.7359243583405                                971.1910317417609                                 1112.6761882075434
180                                               1109.4865643818935                                865.4443840316779                                 1116.1880715380935                                1113.2699554137948                                1111.5624445124254                                983.7159925299671                                 1115.2985372438784
185                                               1111.298249747807                                 886.5983905528659                                 1118.2309624257718                                1115.1329314085538                                1113.3917249095516                                995.6486431068826                                 1117.8447087714212
190                                               1113.167920640596                                 906.306129808609                                  1120.3299964734033                                1117.0540076362845                                1115.279215837133                                 1007.2087299337182                                1120.439561223047
195                                               1115.085918770496                                 925.0702559715286                                 1122.4718288053532                                1119.0227959902631                                1117.2150320573924                                1018.35707835294                                  1123.060835826892
200                                               1117.039323360004                                 943.5632154977521                                 1124.638606761052                                 1121.025399350097                                 1119.1859491837185                                1029.0412808425099                                1125.6787549881924
205                                               1119.0281344091195                                961.7850083872794                                 1126.8303303405                                   1123.0618177157853                                1121.1919672161116                                1039.2613374024277                                1128.2933187069489
210                                               1121.0523519178437                                979.7356346401099                                 1129.0469995436974                                1125.1320510873284                                1123.2330861545715                                1049.0172480326942                                1130.9045269831608
215                                               1123.1049541003185                                993.4318531428793                                 1131.2706683133347                                1127.2271004205722                                1125.3017562872096                                1057.437588804823                                 1133.4670477859981
220                                               1125.159558844637                                 1005.873424155999                                 1133.4917575134004                                1129.3233584226414                                1127.3722310311005                                1065.5359045606783                                1136.0152581991056
225                                               1127.2141635889557                                1018.3149951691186                                1135.7128467134662                                1131.419616424711                                 1129.4427057749908                                1073.6342203165336                                1138.563468612213
230                                               1129.2687683332738                                1030.7565661822382                                1137.933935913532                                 1133.5158744267806                                1131.5131805188817                                1081.7325360723885                                1141.1116790253204
235                                               1131.3233730775924                                1043.198137195358                                 1140.1550251135977                                1135.6121324288497                                1133.5836552627725                                1089.8308518282438                                1143.6598894384279
240                                               1133.5013854735848                                1052.9009194603727                                1142.4735756277096                                1137.8280086148084                                1135.7769090601064                                1096.6195361561522                                1146.2355457689468
245                                               1135.717282360993                                 1061.7629303679414                                1144.8220454561038                                1140.0806059764727                                1138.0078543776422                                1103.0061812270387                                1148.8196276274498
250                                               1137.9331792484013                                1070.6249412755096                                1147.1705152844984                                1142.3332033381375                                1140.2387996951784                                1109.3928262979252                                1151.4037094859527
