% Model:              batchmodel_BILLETTA_r_0.0445341_COIL_kr_1.4848_COIL_kw_3.7744_FUNZ_freq_2540.9_FUNZ_I_eff_85.0125.mph
% Version:            COMSOL 5.6.0.401
% Date:               Jan 26 2022, 17:57
% Table:              Tabella delle sonde 1 - 
% Tempo (s)                                       Temperatura (degC), Punto: (BILLETTA_r-0.01[mm], 0.5)Temperatura (degC), Punto: (0, 0.5)               Temperatura (degC), Punto: (BILLETTA_r-5*FUNZ_depth_billetta, 0.5)Temperatura (degC), Punto: (BILLETTA_r-2*FUNZ_depth_billetta, 0.5)Temperatura (degC), Punto: (BILLETTA_r-FUNZ_depth_billetta, 0.5)Temperatura (degC), Punto: (0.5*BILLETTA_r, 0.5)  Temperatura (degC), Punto: (BILLETTA_r-10*FUNZ_depth_billetta, 0.5)
0                                                 20.275390113053277                                20                                                20.000043550259306                                20.076472823620065                                20.1688010180074                                  20                                                20.000000000011823
5                                                 305.97304110055086                                20.59737300348047                                 262.4834605057464                                 295.604770104925                                  303.03826199400953                                31.224101391187332                                209.71415150294843
10                                                498.02336922022414                                29.866445449155037                                444.6523134941074                                 486.29475728356726                                494.8388816643537                                 76.45030042395138                                 372.04374484848563
15                                                681.5115932450798                                 55.23658607445452                                 619.2865226263726                                 668.473918390842                                  678.135456117926                                  139.10529593864965                                528.9434935104697
20                                                841.3320648697746                                 95.99545979710842                                 768.4137425836913                                 826.9026782531049                                 837.8929588710927                                 208.63952847839323                                662.8435975272557
25                                                996.2323194751635                                 147.7772221170934                                 921.9971834372972                                 983.6969616764974                                 993.6954944094208                                 279.2879587159696                                 785.747068272252
30                                                1091.1224359418256                                205.38532228804775                                1040.0997721735157                                1084.7954863338582                                1090.546678669246                                 348.01824331473813                                909.9141657747977
35                                                1098.9991630073637                                263.1592193591108                                 1076.0763315046593                                1097.9736618740076                                1099.8450100510454                                412.2250253190509                                 989.9640087903002
40                                                1104.9834356680221                                319.0383769264238                                 1091.8224743408773                                1105.5592893305825                                1106.2447210313785                                470.7684889914151                                 1031.4579462760462
45                                                1108.888543075047                                 371.9241077625562                                 1100.3871833868275                                1110.2075528834139                                1110.3438174225785                                523.2617745369486                                 1055.427709801068
50                                                1110.9674221542728                                420.70761981068426                                1106.5683277821859                                1112.9767240608412                                1112.602111926814                                 569.7055922294331                                 1072.2576663996215
55                                                1113.5535009513237                                465.5747785342684                                 1111.8113241141186                                1116.0085021843774                                1115.3065661736623                                610.79799155371                                   1085.0139843866154
60                                                1116.3412222536217                                506.6805538979843                                 1116.2079898518527                                1119.0686506067796                                1118.1693732758013                                646.9368850880447                                 1094.3244528488194
65                                                1119.130079154149                                 544.3738795559941                                 1120.3042195629437                                1122.0843592083816                                1121.022155090473                                 679.1037768309895                                 1102.2715177643277
70                                                1122.0244289654656                                578.9198774208794                                 1124.3318841108357                                1125.178999950681                                 1123.9741086611716                                708.8384960742328                                 1109.5840273298095
75                                                1125.0239454126163                                610.3167231389721                                 1128.28892435318                                  1128.3519656810518                                1127.0248366567785                                736.1320411374575                                 1116.2550485298907
80                                                1128.1239255997039                                638.5381206516145                                 1132.145660009795                                 1131.594504959819                                 1130.1686119846881                                760.8546626646158                                 1122.1846495464265
85                                                1131.2768865560683                                663.7427443422929                                 1135.9927451194362                                1134.880645839563                                 1133.3632159859653                                786.7522169247958                                 1127.902792540362
90                                                1134.4948402879058                                685.8904535531852                                 1139.8072464734164                                1138.2169585746074                                1136.6193289273601                                812.87709579471                                   1133.2754103151283
95                                                1137.7843389098034                                704.9593530084037                                 1143.5766548364986                                1141.6070270008672                                1139.9427765077953                                838.7124133432739                                 1138.229374067771
100                                               1141.2229130366004                                722.1053113354236                                 1147.4623513116007                                1145.1413596325947                                1143.4144735259251                                863.8752111361474                                 1143.216192271128
105                                               1144.798851580425                                 737.15373325863                                   1151.4399590989074                                1148.8062850553947                                1147.0221977090468                                888.4233354819877                                 1148.1676640549763
110                                               1148.4971991694888                                749.8816559510645                                 1155.478348374435                                 1152.5843445081928                                1150.7503408887055                                912.4306576608857                                 1152.9966950877388
115                                               1152.4079226997223                                764.8578360165701                                 1159.7088943826702                                1156.5730147507984                                1154.6910332033126                                935.1704163761732                                 1157.9435880915798
120                                               1156.527819757931                                 781.9196464546307                                 1164.1269207611363                                1160.7688260529453                                1158.8409952380575                                956.6684810317198                                 1162.9997893801674
125                                               1160.8339720453087                                799.9032355180083                                 1168.6989607876803                                1165.1469470421061                                1163.1767576265775                                977.1099878644276                                 1168.1040838861836
130                                               1165.4184963891175                                821.3307410921483                                 1173.5409766040498                                1169.8040755569737                                1167.7918766132734                                996.5680348747197                                 1173.4363985947966
135                                               1170.2902658415192                                846.445105337326                                  1178.6641381361196                                1174.7495259106022                                1172.6953639005792                                1015.0496631471616                                1179.014064775134
140                                               1175.4193413508947                                874.426603795143                                  1184.0307563247839                                1179.9518701688125                                1177.8568126093896                                1032.531114972409                                 1184.7786040421247
145                                               1180.8951071073188                                903.1711151271901                                 1189.7451889454069                                1185.5037063606173                                1183.3667191746213                                1049.4405949671254                                1190.8743289240374
150                                               1186.739779971816                                 932.1556500741918                                 1195.8333746140952                                1191.4280501618327                                1189.2475769109901                                1065.8845354036334                                1197.3371089788134
155                                               1192.9171004733448                                962.233763685172                                  1202.2529796952158                                1197.6873383798102                                1195.462675155697                                 1081.6892313696262                                1204.1084025791747
160                                               1199.4037247012657                                990.7433880045013                                 1208.981490653633                                 1204.2565945438796                                1201.9876309876508                                1097.092682292479                                 1211.1817918245451
165                                               1206.1897023434894                                1016.5498199667264                                1216.0093111237547                                1211.1251724653234                                1208.812051217884                                 1112.1963351240775                                1218.5545410930026
170                                               1213.2866888731392                                1040.982213970543                                 1223.3476819772472                                1218.3055427445952                                1215.948110091142                                 1126.8813581925606                                1226.2298548034141
175                                               1220.5667464636535                                1063.419757981162                                 1230.8696436606974                                1225.669714504446                                 1223.2676840706927                                1141.1962108120852                                1234.084315789315
180                                               1227.9484470897205                                1083.4673264955027                                1238.494390785997                                 1233.136225954624                                 1230.6892269330874                                1155.1717356690228                                1242.039373270025
185                                               1235.509768257651                                 1101.5033015422623                                1246.2993046065553                                1240.7830869355876                                1238.2908293741184                                1168.7783970382716                                1250.170249430692
190                                               1243.0781999241617                                1118.3587408908543                                1254.1100357992186                                1248.4373349030839                                1245.8997988495394                                1181.9779924648028                                1258.2994905041028
195                                               1250.5003553781926                                1134.7725766957356                                1261.7715622635674                                1255.9451808063736                                1253.3625863781886                                1194.7365543672531                                1266.2693140840884
200                                               1257.904116214268                                 1150.1287463168956                                1269.4131290512182                                1263.4348416786866                                1260.8072088424487                                1207.0824022032648                                1274.211266544839
205                                               1265.289482432389                                 1164.4272497543343                                1277.0347361621725                                1270.906317520023                                 1268.2336662423195                                1219.0155359728387                                1282.125347886355
210                                               1272.6564540325548                                1177.6680870080522                                1284.6363835964303                                1278.359608330382                                 1275.6419585778003                                1230.535955675975                                 1290.0115581086357
215                                               1279.9182446374734                                1190.5474504524022                                1292.129376409156                                 1285.706920368339                                 1282.9447860918826                                1241.7317591561587                                1297.7812348498014
220                                               1287.0240706495538                                1203.472721458615                                 1299.4618141923906                                1292.8968805708087                                1290.0910647795863                                1252.6544974237195                                1305.3824967680134
225                                               1294.0472516564437                                1215.8557370061371                                1306.7086289456552                                1300.0036595751671                                1297.1545479462734                                1263.2297429272535                                1312.8902483357906
230                                               1300.9877876581427                                1227.696497094968                                 1313.8698206689487                                1307.0272573814136                                1304.135235591943                                 1273.4574956667616                                1320.304489553133
235                                               1307.8456786546508                                1238.995001725109                                 1320.9453893622717                                1313.96767398955                                  1311.033127716596                                 1283.3377556422438                                1327.6252204200414
240                                               1314.5035283598904                                1249.991874262667                                 1327.8139557083896                                1320.7057517432622                                1317.729934405524                                 1292.9389238947874                                1334.7291163926825
245                                               1320.8926415945389                                1260.8279169922503                                1334.4044938321044                                1327.1717647862952                                1324.1564375669573                                1302.3010257262176                                1341.5440133342113
250                                               1327.1121980634662                                1271.299844484371                                 1340.8195484157313                                1333.466380878941                                 1330.4125718685232                                1311.3662740012296                                1348.1740993094245
