% Model:              batchmodel_BILLETTA_r_0.0445341_COIL_kr_1.4848_COIL_kw_3.2356_FUNZ_freq_7167.5_FUNZ_I_eff_127.5152.mph
% Version:            COMSOL 5.6.0.401
% Date:               Jan 26 2022, 17:49
% Table:              Tabella delle sonde 1 - 
% Tempo (s)                                       Temperatura (degC), Punto: (BILLETTA_r-0.01[mm], 0.5)Temperatura (degC), Punto: (0, 0.5)               Temperatura (degC), Punto: (BILLETTA_r-5*FUNZ_depth_billetta, 0.5)Temperatura (degC), Punto: (BILLETTA_r-2*FUNZ_depth_billetta, 0.5)Temperatura (degC), Punto: (BILLETTA_r-FUNZ_depth_billetta, 0.5)Temperatura (degC), Punto: (0.5*BILLETTA_r, 0.5)  Temperatura (degC), Punto: (BILLETTA_r-10*FUNZ_depth_billetta, 0.5)
0                                                 21.196063128560127                                20                                                20.009240965937295                                20.479503018451965                                20.85717725956397                                 20                                                20.000000001634874
5                                                 1160.7060864259547                                21.25841497049072                                 1106.5196013780424                                1153.8638442797924                                1159.730908349959                                 54.30079436486733                                 936.9723486344102
10                                                1236.0887791604237                                42.431125414689404                                1225.6997576880444                                1236.5198817408614                                1237.0442343235818                                163.67676065049778                                1176.370434585603
15                                                1244.2985883731458                                100.08342932327162                                1241.146712985062                                 1245.8792029644096                                1245.5507812689511                                278.11511473108715                                1215.2054897633343
20                                                1266.672370608444                                 177.59910426074697                                1266.0327982152844                                1268.7213237911392                                1268.0741430240628                                377.8273390668071                                 1247.7364768717794
25                                                1291.3195836908303                                257.71971433693625                                1291.9679939438302                                1293.6599622855251                                1292.832072424847                                 463.47592622998957                                1277.2597906679825
30                                                1319.642389333626                                 333.33099341608636                                1320.9087868319161                                1322.1894009300668                                1321.251511076393                                 536.8710149103916                                 1307.3529945136856
35                                                1346.9412356656917                                402.00450420650475                                1348.6092192095884                                1349.6620868476703                                1348.6387543772703                                600.0268801957037                                 1335.4221361055183
40                                                1378.396867798347                                 461.93594417094823                                1381.000816887799                                 1381.3948268410813                                1380.2177949373909                                656.4340736609277                                 1369.6848850189467
40.17797265486709                                 1379.5710293744514                                463.9179314864091                                 1382.2143749818197                                1382.580087543427                                 1381.3967875794037                                658.300013315361                                  1370.9811293380685
