% Model:              batchmodel_BILLETTA_r_0.0445341_COIL_kr_1.4848_COIL_kw_3.2356_FUNZ_freq_2540.9_FUNZ_I_eff_174.7421.mph
% Version:            COMSOL 5.6.0.401
% Date:               Jan 26 2022, 17:38
% Table:              Tabella delle sonde 1 - 
% Tempo (s)                                       Temperatura (degC), Punto: (BILLETTA_r-0.01[mm], 0.5)Temperatura (degC), Punto: (0, 0.5)               Temperatura (degC), Punto: (BILLETTA_r-5*FUNZ_depth_billetta, 0.5)Temperatura (degC), Punto: (BILLETTA_r-2*FUNZ_depth_billetta, 0.5)Temperatura (degC), Punto: (BILLETTA_r-FUNZ_depth_billetta, 0.5)Temperatura (degC), Punto: (0.5*BILLETTA_r, 0.5)  Temperatura (degC), Punto: (BILLETTA_r-10*FUNZ_depth_billetta, 0.5)
0                                                 20.39409599360647                                 20                                                20.00864455023782                                 20.124777910059777                                20.324010527565292                                20                                                20.000000001344688
5                                                 1070.7554492076306                                20.988133713176694                                931.8924971279754                                 1048.2667346031076                                1065.951136924229                                 51.58274332453675                                 676.9183769046625
10                                                1296.3485761705683                                43.548488043034126                                1267.9933182364953                                1295.8621272321284                                1297.8560808583484                                164.10432489852394                                1140.5778934999548
15                                                1344.120029633249                                 103.35182593472229                                1336.4501911657912                                1347.1915040699369                                1346.6484788306102                                286.33228507991623                                1276.0757694284234
20                                                1356.494574485308                                 183.18289974969701                                1356.647387360114                                 1360.8555722795                                   1359.378040108375                                 398.7309904420864                                 1321.6371200877247
25                                                1372.415468540008                                 268.13283528101                                   1376.3236239637622                                1377.4619255175412                                1375.515083176193                                 498.3878089938853                                 1352.788573370573
30                                                1384.06229089028                                  348.32308971090015                                1389.8532314452236                                1389.4626622406672                                1387.282937101499                                 586.6341135184437                                 1372.6759525547463
33.901285171504824                                1393.4304820940574                                406.84862374063925                                1400.2518389519328                                1399.0435058665162                                1396.731026696451                                 648.8973786945015                                 1386.4009733013522
