% Model:              batchmodel_BILLETTA_r_0.0445341_COIL_kr_1.4848_COIL_kw_3.7744_FUNZ_freq_6066_FUNZ_I_eff_61.5962.mph
% Version:            COMSOL 5.6.0.401
% Date:               Jan 26 2022, 18:05
% Table:              Tabella delle sonde 1 - 
% Tempo (s)                                       Temperatura (degC), Punto: (BILLETTA_r-0.01[mm], 0.5)Temperatura (degC), Punto: (0, 0.5)               Temperatura (degC), Punto: (BILLETTA_r-5*FUNZ_depth_billetta, 0.5)Temperatura (degC), Punto: (BILLETTA_r-2*FUNZ_depth_billetta, 0.5)Temperatura (degC), Punto: (BILLETTA_r-FUNZ_depth_billetta, 0.5)Temperatura (degC), Punto: (0.5*BILLETTA_r, 0.5)  Temperatura (degC), Punto: (BILLETTA_r-10*FUNZ_depth_billetta, 0.5)
0                                                 20.437242233030815                                20                                                20.00003910374693                                 20.101171663198386                                20.26156878217995                                 20                                                20.000000000009265
5                                                 305.8150802077438                                 20.766113575061127                                275.08601281488666                                298.19087531031334                                303.6178191865355                                 32.031247597954916                                237.89338382385193
10                                                502.8147109504665                                 28.57916011206106                                 464.5979729442829                                 494.1029886293836                                 500.40750397085435                                74.04671148316754                                 413.69054348377415
15                                                695.6463554433552                                 51.35635567387902                                 648.6662267517585                                 685.513453672569                                  692.9802441002981                                 135.87191366617247                                582.3136989009366
20                                                853.5905031411122                                 92.41555042608081                                 799.3849722826666                                 842.7434371619744                                 850.9353744078927                                 205.37588832633878                                720.7747941570203
25                                                977.204319613899                                  145.41157388371113                                926.2831105554247                                 967.9945069597405                                 975.1998460737626                                 275.7988679371101                                 837.1035098715369
30                                                1067.8631824917775                                202.60681386156955                                1034.4161062484864                                1063.305305766106                                 1067.2996002119025                                342.49199113199506                                955.1048624142792
35                                                1072.5391323461595                                259.7928723223596                                 1055.315273313674                                 1071.0797686367591                                1072.7989234417523                                404.5384352592599                                 1002.3700286661639
40                                                1080.7295901316256                                314.794821404638                                  1069.0538521432377                                1080.2871384045325                                1081.2679332184439                                460.8909123960999                                 1029.0743416475798
45                                                1084.7395262848354                                366.3462543197436                                 1076.0720894551318                                1084.8021109578435                                1085.4133916091869                                510.93597269478255                                1045.783046308297
50                                                1087.6885511958062                                413.8515803754075                                 1082.2799213162348                                1088.3474767033044                                1088.5212814175352                                555.0078725741643                                 1057.6173378677313
55                                                1091.2314442794964                                457.2111246483888                                 1087.786091706149                                 1092.251555130355                                 1092.163263519627                                 593.6683683752362                                 1067.3650270385515
60                                                1095.0415768005096                                496.95827373243674                                1092.9149115120313                                1096.3059937902913                                1096.0426481937188                                628.0850019678294                                 1075.8864570712149
65                                                1098.8432317329934                                533.4261455096778                                 1097.828253560096                                 1100.315671397358                                 1099.9040609650024                                658.9501860793829                                 1083.580600006003
70                                                1102.6047122336581                                566.6033282082964                                 1102.434191191801                                 1104.237502084171                                 1103.7128191022193                                686.2951075133687                                 1090.3614536440027
75                                                1106.0065868321262                                596.7861349392646                                 1106.624087260926                                 1107.7890020925606                                1107.1584924608305                                710.9514358009844                                 1096.464277742978
80                                                1109.2083683399787                                623.8265973844209                                 1110.4521913272138                                1111.1112338495905                                1110.3960989077245                                732.5038645071097                                 1101.771591876317
85                                                1112.4269271748344                                648.2096937868015                                 1114.2195802942783                                1114.437018517548                                 1113.6471640531217                                753.4367562503813                                 1106.8385448557888
90                                                1115.6365471746808                                669.8779161690293                                 1117.89055292395                                  1117.7387485195445                                1116.8854197294004                                773.4555191159637                                 1111.5993079854325
95                                                1118.8382960496874                                688.8352786563241                                 1121.4777446985117                                1121.0194525975267                                1120.112427307855                                 792.8848268414591                                 1116.0893424325309
100                                               1122.0936443441974                                705.2223392552693                                 1125.0877107225901                                1124.3487035221278                                1123.3918723121901                                813.0232166124707                                 1120.5282602163875
105                                               1125.3687168307733                                718.9616391684505                                 1128.6617305400305                                1127.6881610857922                                1126.6886588827056                                833.1550897147059                                 1124.7950374029938
110                                               1128.7121610644895                                731.2190795282104                                 1132.2951553668418                                1131.0947128088474                                1130.0536098858584                                852.9750259311132                                 1129.0891901423151
115                                               1132.1085114054858                                741.6240064137565                                 1135.9576719105098                                1134.5502734678826                                1133.4705681242704                                872.5801220032596                                 1133.3472898629266
120                                               1135.570362665991                                 751.1781937987695                                 1139.6633238247587                                1138.0677515204989                                1136.952228348654                                 891.6729490967886                                 1137.5864638288213
125                                               1139.114041803391                                 761.0352381252206                                 1143.4325214496625                                1141.6642575548867                                1140.5151430560777                                909.9131873720329                                 1141.8360687353334
130                                               1142.7309521179368                                770.5759856822693                                 1147.2543338813634                                1145.3307504627537                                1144.1505893554981                                927.5069411861233                                 1146.0802166451658
135                                               1146.4790048961281                                783.50978626722                                   1151.1951599721224                                1149.126885684062                                 1147.9170363810094                                944.1233939271727                                 1150.40901414665
140                                               1150.3333476132589                                798.2447790693121                                 1155.2265047736146                                1153.0270621937766                                1151.7893922086105                                959.9045149506718                                 1154.783792159059
145                                               1154.3329315307888                                816.0736179511092                                 1159.3933054318159                                1157.071441178266                                 1155.8069954433768                                975.090188597114                                  1159.2653140543925
150                                               1158.4997634804063                                837.7266314031295                                 1163.720950706192                                 1161.2827130571918                                1159.992071759862                                 989.8159456325969                                 1163.8879101534262
155                                               1162.8244944055855                                862.0851970528694                                 1168.1985191511494                                1165.6512165935405                                1164.3351739932323                                1004.0265748848086                                1168.6359403592314
160                                               1167.3732719649252                                885.0545065900645                                 1172.9012681457234                                1170.244984723488                                 1168.903067612745                                 1018.147859872592                                 1173.6043793032627
165                                               1172.1158922548839                                908.5043041272805                                 1177.7948341664674                                1175.0329527005947                                1173.6652666142681                                1031.9853821599017                                1178.749860301527
170                                               1177.0523552754612                                932.4345896645178                                 1182.8792172133817                                1180.0151205248617                                1178.6217709978018                                1045.539141746739                                 1184.0723833540237
175                                               1182.1826610266576                                956.8453632017757                                 1188.154417286466                                 1185.191488196288                                 1183.7725807633465                                1058.809138633103                                 1189.571948460753
180                                               1187.551036740747                                 979.825349457566                                  1193.6635230182146                                1190.6060113822928                                1189.1618281346286                                1071.5144855910203                                1195.2892997125482
185                                               1193.1217139369378                                997.3672807788779                                 1199.3704550597208                                1196.222171139124                                 1194.7532703536303                                1083.2884325991586                                1201.1924476142508
190                                               1198.6923911331278                                1014.9092121001898                                1205.0773871012266                                1201.8383308959556                                1200.344712572632                                 1095.0623796072973                                1207.0955955159534
195                                               1204.2630683293187                                1032.451143421502                                 1210.7843191427323                                1207.4544906527867                                1205.9361547916337                                1106.8363266154356                                1212.9987434176555
200                                               1209.8337455255091                                1049.9930747428139                                1216.491251184238                                 1213.0706504096183                                1211.527597010635                                 1118.6102736235744                                1218.9018913193581
205                                               1215.4658651892096                                1066.18108984003                                  1222.254758220647                                 1218.7473792673004                                1217.180246868826                                 1129.885607716928                                 1224.8494620614301
210                                               1221.2070826928984                                1079.9650781857167                                1228.1187203655722                                1224.531655206678                                 1222.9415776035667                                1140.275599892912                                 1230.8759104288138
215                                               1226.9483001965873                                1093.749066531403                                 1233.982682510497                                 1230.315931146055                                 1228.7029083383072                                1150.6655920688954                                1236.9023587961974
220                                               1232.6895177002757                                1107.5330548770899                                1239.8466446554212                                1236.100207085432                                 1234.4642390730478                                1161.0555842448794                                1242.928807163581
225                                               1238.4307352039646                                1121.3170432227762                                1245.7106068003468                                1241.8844830248095                                1240.2255698077888                                1171.4455764208628                                1248.9552555309647
230                                               1244.1186328144822                                1133.7607455993389                                1251.5160862312136                                1247.6144506294013                                1245.9332871902757                                1181.1955011943614                                1254.9106564744152
235                                               1249.745599910254                                 1144.6728561224854                                1257.2547354105668                                1253.2823581922967                                1251.5797387120142                                1190.2139984651722                                1260.784869031053
240                                               1255.3725670060257                                1155.5849666456315                                1262.9933845899195                                1258.950265755192                                 1257.2261902337536                                1199.2324957359833                                1266.6590815876907
245                                               1260.9995341017975                                1166.4970771687777                                1268.7320337692727                                1264.6181733180874                                1262.8726417554922                                1208.250993006794                                 1272.533294144328
250                                               1266.6265011975693                                1177.4091876919242                                1274.4706829486263                                1270.2860808809824                                1268.5190932772316                                1217.2694902776047                                1278.4075067009653
