% Model:              batchmodel_BILLETTA_r_0.0445341_COIL_kr_1.4848_COIL_kw_3.7744_FUNZ_freq_4639.7_FUNZ_I_eff_85.0125.mph
% Version:            COMSOL 5.6.0.401
% Date:               Jan 26 2022, 18:02
% Table:              Tabella delle sonde 1 - 
% Tempo (s)                                       Temperatura (degC), Punto: (BILLETTA_r-0.01[mm], 0.5)Temperatura (degC), Punto: (0, 0.5)               Temperatura (degC), Punto: (BILLETTA_r-5*FUNZ_depth_billetta, 0.5)Temperatura (degC), Punto: (BILLETTA_r-2*FUNZ_depth_billetta, 0.5)Temperatura (degC), Punto: (BILLETTA_r-FUNZ_depth_billetta, 0.5)Temperatura (degC), Punto: (0.5*BILLETTA_r, 0.5)  Temperatura (degC), Punto: (BILLETTA_r-10*FUNZ_depth_billetta, 0.5)
0                                                 20.49391173216884                                 20                                                20.000157695462065                                20.144609942903685                                20.31500904001058                                 20                                                20.00000000003257
5                                                 460.72463343892196                                20.650841693027246                                407.67904604770456                                448.75127054689426                                457.42222787300057                                35.01860037239385                                 337.97751344219637
10                                                761.49479747575                                   30.362288881881568                                693.4480047957087                                 747.1557625815115                                 757.7824558392696                                 94.95764981120851                                 596.149728595156
15                                                1004.8930203274746                                62.51817889192489                                 929.0639180680163                                 991.4310291900923                                 1001.8997388906774                                177.33383805433368                                794.0625706933553
20                                                1102.0227161371295                                116.79436252887837                                1068.0950435703603                                1098.605199468148                                 1101.9854459535168                                261.6602453711357                                 963.5577576906852
25                                                1115.7872843072369                                181.47187989124916                                1101.8918156645473                                1115.5825790305207                                1116.5711311440073                                340.75988225307674                                1043.8985136562974
30                                                1122.5859935450044                                246.9214763190264                                 1115.2041906565587                                1123.4578237149963                                1123.6519925029993                                412.1977619029442                                 1076.7933607523128
35                                                1125.2801122218834                                309.27401240200254                                1121.2757333803916                                1126.6980597567317                                1126.4872419716935                                475.0800522286779                                 1093.1414861573967
40                                                1127.6942670632047                                367.30690497539877                                1125.7577126791466                                1129.4469083033214                                1128.989032437396                                 529.8258192438999                                 1104.0741031803113
45                                                1131.8415073761053                                420.1370139406931                                 1131.5126186232724                                1133.8710725942474                                1133.2133898628513                                578.0339028053386                                 1114.5334439627727
50                                                1137.3637499160354                                467.70874911466206                                1138.1816675408159                                1139.6061446005247                                1138.7996022151833                                619.9324374829562                                 1124.3482206699805
55                                                1142.436063841274                                 511.2065855951528                                 1144.226303343958                                 1144.8601331513282                                1143.927215778624                                 657.4643705859997                                 1133.0698840538093
60                                                1147.6226040288084                                550.3047984221339                                 1150.123678454464                                 1150.1873379668618                                1149.159090226136                                 690.0960291705932                                 1140.840389531214
65                                                1152.9396048835797                                585.7734615967895                                 1156.0640819197884                                1155.6310478771761                                1154.518188465891                                 719.7932098229851                                 1148.4085477374301
70                                                1158.4084110166755                                617.4050235528184                                 1162.0193785149168                                1161.2051267367938                                1160.0240543742657                                746.264605681746                                  1155.5834659511038
75                                                1164.281938789507                                 645.7176374647097                                 1168.33340616133                                  1167.1786476522157                                1165.93419262113                                  773.309341772488                                  1162.9617649089205
80                                                1170.468810975036                                 670.5668207231655                                 1174.8874667100827                                1173.4553159355428                                1172.155805714296                                 799.8157380205854                                 1170.3491595905625
85                                                1176.9467307766204                                692.1730881850477                                 1181.685694278689                                 1180.0171419048825                                1178.6676719233433                                827.0745912950196                                 1177.8255832307377
90                                                1183.8479381560683                                710.9837648485192                                 1188.8640574762226                                1186.9973566119047                                1185.6024515388185                                854.5389846047434                                 1185.536188041488
95                                                1191.6906065886533                                729.2003486952269                                 1196.9963665347864                                1194.9248006241855                                1193.4817024744448                                881.8830855239245                                 1194.2080397794107
100                                               1200.2774763280845                                745.9847672377889                                 1205.8641817499092                                1203.5981534165226                                1202.106876586317                                 909.2309328633474                                 1203.5643569928752
105                                               1209.6085473743628                                761.3370204762051                                 1215.467503121591                                 1213.0174149889153                                1211.477973874435                                 936.5825266230114                                 1213.6051396818816
110                                               1220.0046887551925                                781.2141943398166                                 1226.129382403844                                 1223.5051727976129                                1221.9168034905156                                962.9817223168185                                 1224.6455483480809
115                                               1231.141454895056                                 810.154797502474                                  1237.5326962134268                                1234.7368216373593                                1233.0982868987903                                987.8566900677112                                 1236.399115063115
120                                               1242.2782210349192                                839.0954006651313                                 1248.9360100230097                                1245.9684704771057                                1244.2797703070646                                1012.7316578186036                                1248.1526817781487
125                                               1253.4149871747832                                868.0360038277887                                 1260.339323832593                                 1257.2001193168521                                1255.4612537153394                                1037.606625569496                                 1259.9062484931828
130                                               1264.8319203417805                                897.9470561272243                                 1272.03054347546                                  1268.7155379520264                                1266.9247553676882                                1061.3716073829319                                1271.9490972626713
135                                               1276.5118336430337                                928.7690251997316                                 1283.992007320382                                 1280.497318477329                                 1278.652974808022                                 1084.0946955308627                                1284.263482030868
140                                               1288.1917469442874                                959.5909942722386                                 1295.9534711653046                                1292.2790990026324                                1290.3811942483558                                1106.817783678794                                 1296.5778667990653
145                                               1299.848684444668                                 990.2748449795378                                 1307.8918698057223                                1304.037891407384                                 1302.0864380537228                                1129.431619717303                                 1308.8690635390167
150                                               1310.8383470091148                                1016.9473916279559                                1319.1603970042784                                1315.1290510817994                                1313.124411741483                                 1148.8725002309807                                1320.486821727346
155                                               1321.8280095735618                                1043.619938276374                                 1330.428924202834                                 1326.2202107562148                                1324.162385429243                                 1168.313380744658                                 1332.104579915676
160                                               1332.8176721380087                                1070.292484924792                                 1341.6974514013905                                1337.3113704306306                                1335.2003591170032                                1187.7542612583356                                1343.7223381040053
165                                               1343.8073347024556                                1096.9650315732101                                1352.965978599946                                 1348.402530105046                                 1346.2383328047636                                1207.1951417720134                                1355.3400962923351
169.83356916807728                                1354.4311935302721                                1122.7497513959893                                1363.8594197272623                                1359.1245075931415                                1356.9088946638049                                1225.9889099022503                                1366.5711438485928
