% Model:              batchmodel_BILLETTA_r_0.0445341_COIL_kr_1.4848_COIL_kw_3.7744_FUNZ_freq_2540.9_FUNZ_I_eff_174.7421.mph
% Version:            COMSOL 5.6.0.401
% Date:               Jan 26 2022, 17:59
% Table:              Tabella delle sonde 1 - 
% Tempo (s)                                       Temperatura (degC), Punto: (BILLETTA_r-0.01[mm], 0.5)Temperatura (degC), Punto: (0, 0.5)               Temperatura (degC), Punto: (BILLETTA_r-5*FUNZ_depth_billetta, 0.5)Temperatura (degC), Punto: (BILLETTA_r-2*FUNZ_depth_billetta, 0.5)Temperatura (degC), Punto: (BILLETTA_r-FUNZ_depth_billetta, 0.5)Temperatura (degC), Punto: (0.5*BILLETTA_r, 0.5)  Temperatura (degC), Punto: (BILLETTA_r-10*FUNZ_depth_billetta, 0.5)
0                                                 20.39441558050646                                 20                                                20.008569065754557                                20.12444697118559                                 20.32308274736505                                 20                                                20.00000000132667
5                                                 1060.7624786319643                                21.055372131722947                                919.9727887007226                                 1037.407330393161                                 1055.6819854952737                                51.94206892521083                                 669.2045061984729
10                                                1293.5046232109707                                43.29769790864282                                 1264.9613558712995                                1292.9686440986202                                1294.9920685560182                                163.63096658751851                                1137.9662579148653
15                                                1340.806611961852                                 102.95618363338053                                1332.8732633511177                                1343.8191532324913                                1343.3110551562377                                285.7922933731668                                 1271.1852632671066
20                                                1359.1445118226015                                182.89071401894137                                1359.0620828686406                                1363.4907673853127                                1362.0324588193066                                397.80402398861816                                1323.0745847277349
25                                                1365.865230582237                                 267.40263637058445                                1369.4947980757056                                1370.8166129627366                                1368.9215083477475                                497.3503220474                                    1345.92848063348
30                                                1377.7624436003216                                347.81900530380767                                1383.5497136884123                                1383.115297111503                                 1380.9520772623541                                585.715764822029                                  1366.7646853205383
30.68663772241781                                 1379.786197840997                                 358.4291941277031                                 1385.7702646318207                                1385.181047968617                                 1382.9920371336316                                597.0284391273574                                 1369.5809426570927
