% Model:              batchmodel_BILLETTA_r_0.0445341_COIL_kr_1.4848_COIL_kw_3.7744_FUNZ_freq_2540.9_FUNZ_I_eff_127.5152.mph
% Version:            COMSOL 5.6.0.401
% Date:               Jan 26 2022, 17:59
% Table:              Tabella delle sonde 1 - 
% Tempo (s)                                       Temperatura (degC), Punto: (BILLETTA_r-0.01[mm], 0.5)Temperatura (degC), Punto: (0, 0.5)               Temperatura (degC), Punto: (BILLETTA_r-5*FUNZ_depth_billetta, 0.5)Temperatura (degC), Punto: (BILLETTA_r-2*FUNZ_depth_billetta, 0.5)Temperatura (degC), Punto: (BILLETTA_r-FUNZ_depth_billetta, 0.5)Temperatura (degC), Punto: (0.5*BILLETTA_r, 0.5)  Temperatura (degC), Punto: (BILLETTA_r-10*FUNZ_depth_billetta, 0.5)
0                                                 20.303812736010343                                20                                                20.0008046857929                                  20.07687505240426                                 20.20952196404346                                 20                                                20.000000000105445
5                                                 626.479473259637                                  20.365856322386776                                539.6949007886058                                 608.4008007741842                                 621.7006465478091                                 36.91421403618648                                 410.98131741003886
10                                                1024.2883192822715                                31.21621446563603                                 910.1115608102931                                 1005.0286148107836                                1020.1205709927295                                116.17910758281641                                716.9424898419978
15                                                1177.1316908305257                                72.85800467018714                                 1142.6601522323763                                1174.9475133607475                                1177.8982471658824                                216.14908504580274                                1003.5429006032704
20                                                1196.2356265375306                                139.38722230333167                                1183.1247217300638                                1197.514118240052                                 1197.923413814659                                 314.1615458555824                                 1113.0915423118613
25                                                1202.6694492502993                                213.58008848874118                                1197.9561325451396                                1205.297210827122                                 1204.7084603897165                                402.8771185493812                                 1154.5602455608064
30                                                1213.5283017655747                                286.5898459717673                                 1213.060655619714                                 1216.880359851581                                 1215.7737410691066                                480.57818064266553                                1182.7876074006022
35                                                1221.133137033974                                 355.35658074899277                                1223.1823143521679                                1224.911111967875                                 1223.5023130632344                                547.97311282396                                   1201.2953428169676
40                                                1228.7164705653008                                417.94574591890466                                1232.7320321863926                                1232.8470744091474                                1231.1924489318058                                607.1271189344651                                 1216.8724958502116
45                                                1231.2362935586702                                473.7393729948694                                 1236.4773024260749                                1235.5713442765054                                1233.7692352162094                                659.7323971542679                                 1224.4174084265105
50                                                1237.3635165158012                                524.5797868834774                                 1243.4465301119585                                1241.8649139265017                                1239.9532180156448                                707.284502443165                                  1233.894730247719
55                                                1245.4264199792133                                570.3700455051168                                 1252.059420520728                                 1250.0611817634494                                1248.0698635830418                                752.1217724947761                                 1243.99316381563
60                                                1255.800419390635                                 611.5244778563648                                 1262.9127184709168                                1260.5736836502501                                1258.5052450314415                                797.7183721489065                                 1255.9471583775658
65                                                1268.112166258284                                 648.0936369275639                                 1275.6812761690062                                1273.0352105809006                                1270.8868748364466                                845.8875599269803                                 1269.577464952296
70                                                1282.2627918899207                                679.9449439061303                                 1290.2633165054667                                1287.3458778599684                                1285.1154386062735                                894.9237706323319                                 1284.7846876460103
75                                                1297.9472125223178                                706.8470615333304                                 1306.3915023723248                                1303.20519326553                                  1300.8864763024035                                942.0163500126779                                 1301.4370644948358
80                                                1315.0899184453524                                729.2000704331241                                 1324.0086520595805                                1320.5404355848814                                1318.125228252563                                 986.3617975419107                                 1319.5425503816514
85                                                1333.4585980680026                                748.5143944465127                                 1342.8898188323956                                1339.118666248492                                 1336.598646069201                                 1027.8266982486743                                1338.9238996553322
90                                                1352.1730451174449                                770.9838068763992                                 1362.167782005923                                 1358.0544836052131                                1355.4228418807438                                1066.8231336770486                                1358.851056103079
95                                                1369.2649028832325                                803.1665261779959                                 1379.824898950163                                 1375.355312805802                                 1372.617223878096                                 1103.8348561833654                                1377.336806091686
99.28762830405816                                 1381.7518043916389                                841.7912216420642                                 1392.7803873327944                                1388.0014668806489                                1385.1810645248734                                1134.2081022907732                                1391.1748058544272
