% Model:              batchmodel_BILLETTA_r_0.0445341_COIL_kr_1.4848_COIL_kw_3.2356_FUNZ_freq_4639.7_FUNZ_I_eff_61.5962.mph
% Version:            COMSOL 5.6.0.401
% Date:               Jan 26 2022, 17:39
% Table:              Tabella delle sonde 1 - 
% Tempo (s)                                       Temperatura (degC), Punto: (BILLETTA_r-0.01[mm], 0.5)Temperatura (degC), Punto: (0, 0.5)               Temperatura (degC), Punto: (BILLETTA_r-5*FUNZ_depth_billetta, 0.5)Temperatura (degC), Punto: (BILLETTA_r-2*FUNZ_depth_billetta, 0.5)Temperatura (degC), Punto: (BILLETTA_r-FUNZ_depth_billetta, 0.5)Temperatura (degC), Punto: (0.5*BILLETTA_r, 0.5)  Temperatura (degC), Punto: (BILLETTA_r-10*FUNZ_depth_billetta, 0.5)
0                                                 20.340316511220863                                20                                                20.00001922463332                                 20.075918509054873                                20.198601145482314                                20                                                20.000000000005116
5                                                 257.60047515457893                                20.478673549143537                                228.8107494811856                                 250.2105450542457                                 255.44231104134838                                29.036728803834933                                195.1284140350689
10                                                411.19514398150375                                27.603183053714986                                376.3280852480169                                 402.96007993532123                                408.8832447797481                                 65.70503766248675                                 331.9993986529513
15                                                556.5404230646269                                 50.04962809941475                                 517.0186005029998                                 547.7031530198961                                 554.1382161280764                                 119.48750392700833                                463.1301422068559
20                                                704.0155885663748                                 87.95219851159504                                 658.070385953161                                  694.2656127890588                                 701.4924650439791                                 180.99523257922328                                592.3613514877258
25                                                828.3581831366781                                 134.31344970173058                                776.2430910844204                                 817.8901344351785                                 825.8143999829864                                 244.02476788557863                                698.6837542637076
30                                                953.8709017707562                                 184.3801462818377                                 899.3659889366558                                 943.9213730457699                                 951.6928103845497                                 305.81168206753046                                806.1130505120992
35                                                1021.6589965598622                                234.78543019656308                                978.4279418631899                                 1014.720805346688                                 1020.436962680454                                 362.35961092564776                                892.510034872014
40                                                1061.5432984742115                                284.1779245098859                                 1030.853440817199                                 1057.5590273826647                                1061.2010855183366                                416.03101411738066                                957.8243781176653
45                                                1069.935748281548                                 331.6402613248067                                 1050.877241248958                                 1068.3096195152907                                1070.238854089992                                 465.280554122068                                  994.4276358617539
50                                                1074.2929822764413                                376.5171559133779                                 1061.3584339691379                                1073.7939996978307                                1074.899230207971                                 509.7174004493178                                 1017.2400445225786
55                                                1077.8274890809876                                417.7756718403218                                 1068.5365324964537                                1077.9830513916418                                1078.6102129573228                                549.1070400490283                                 1032.9481174778152
60                                                1081.4152746855398                                457.23559110026133                                1075.102474968412                                 1082.1090959840894                                1082.3443423263648                                586.0482018059001                                 1046.603984956238
65                                                1085.1394337856223                                494.0814505399841                                 1080.910014939906                                 1086.217631949291                                 1086.1752375376059                                619.4384690094483                                 1057.4658063741954
70                                                1088.8649627265122                                528.5411907424523                                 1086.080525838861                                 1090.2166716037532                                1089.9787518168537                                649.731637065822                                  1066.218047729963
75                                                1092.1695826400473                                560.3551419330668                                 1090.734232737112                                 1093.7734282365318                                1093.354879593303                                 677.0853283071832                                 1074.1437325268244
80                                                1095.2638638250046                                589.6527890236798                                 1094.8111851346334                                1097.0538466827506                                1096.5030845363626                                701.4209440062926                                 1080.6030782352827
85                                                1098.2759191014002                                616.4211723364846                                 1098.690527861048                                 1100.2310296381438                                1099.5633767012514                                723.810310909959                                  1086.5835917244117
90                                                1101.1981774181695                                640.6610577462969                                 1102.3498546898359                                1103.2947472962933                                1102.5274819489941                                744.1900875428354                                 1092.0269145494458
95                                                1104.0280722666316                                662.432025300382                                  1105.778010669013                                 1106.2410239497249                                1105.3924769492914                                763.2097573367138                                 1096.8996828660715
100                                               1106.8133544793504                                681.872612303858                                  1109.1077098457813                                1109.1331517460167                                1108.210260578458                                 782.8904058651375                                 1101.5371421591349
105                                               1109.5287388927532                                698.9094600688696                                 1112.2686770812215                                1111.9376160380207                                1110.9533511883956                                802.1618218547422                                 1105.7617722375448
110                                               1112.2346388366013                                713.5773735997082                                 1115.3855079194127                                1114.7266741429207                                1113.6854585586302                                821.5612423291185                                 1109.8506840271984
115                                               1114.9186712559867                                725.8692188370383                                 1118.43266373387                                  1117.4855153172985                                1116.393523953595                                 840.9785486176428                                 1113.7470774837298
120                                               1117.5859283031295                                736.4085330886264                                 1121.4199755768582                                1120.2200589360568                                1119.0828626906878                                860.1197023594337                                 1117.473025453321
125                                               1120.2556566473436                                746.2501861328783                                 1124.3860090724374                                1122.9530372105755                                1121.7736796542135                                878.5851601793457                                 1121.1146505458933
130                                               1122.9168824729604                                754.792726034753                                  1127.3087753745035                                1125.6714889841296                                1124.4544546859383                                896.6027285242352                                 1124.6228484914704
135                                               1125.6148011842133                                764.7663823503441                                 1130.2570369745863                                1128.4248582727146                                1127.1715492866797                                913.49985032147                                   1128.1263355322585
140                                               1128.334522627336                                 775.2716490657648                                 1133.2081392667656                                1131.1968551677987                                1129.9096891185336                                929.4981073534924                                 1131.5827045989736
145                                               1131.1063008968258                                787.5585249858487                                 1136.196220158517                                 1134.0185320545006                                1132.6993809777377                                944.6867960664264                                 1135.035600748292
150                                               1133.967706726883                                 803.2248306543064                                 1139.2646106584139                                1136.9286122388949                                1135.5785510157816                                959.1342903546114                                 1138.5425749524597
155                                               1136.8956824955812                                821.2746285290199                                 1142.386672962045                                 1139.9033234546018                                1138.5239218217503                                972.8026726844101                                 1142.0681363144768
160                                               1139.9639417900707                                842.6849854001397                                 1145.6410859337975                                1143.0176138793681                                1141.6096700239855                                986.3951759557584                                 1145.70111599434
165                                               1143.141156395393                                 867.0406486715768                                 1148.9944111199002                                1146.2396305982293                                1144.804270615396                                 999.6129267545801                                 1149.4037608208487
170                                               1146.4552181164927                                891.6126516765033                                 1152.4778005772428                                1149.5979951836503                                1148.135873395107                                 1012.5511512812062                                1153.2141761961434
175                                               1149.9277942945141                                914.2810365327617                                 1156.1154543260564                                1153.11494188601                                  1151.6263461232702                                1025.283824618014                                 1157.1619637451158
180                                               1153.5433339769343                                936.5673265392658                                 1159.8900036747623                                1156.7745128741312                                1155.25999400385                                  1037.7578538180524                                1161.2258779692884
185                                               1157.3018371637522                                958.471521696015                                  1163.8014486233596                                1160.5767081480153                                1159.0368170368452                                1049.9732388813213                                1165.4059188686601
190                                               1161.2033038549694                                979.9936220030098                                 1167.8497891718494                                1164.5215277076604                                1162.956815222256                                 1061.9299798078214                                1169.702086443231
195                                               1165.3310595809585                                997.4058112875285                                 1172.1188308597948                                1168.6929092455293                                1167.1036986408826                                1072.7634251880704                                1174.1961015731795
200                                               1169.538443830144                                 1012.4126704933827                                1176.4666338262223                                1172.9442369569115                                1171.3304918478466                                1083.0062517194265                                1178.7635779344287
205                                               1173.7458280793294                                1027.4195296992366                                1180.8144367926498                                1177.1955646682936                                1175.5572850548106                                1093.249078250782                                 1183.3310542956779
210                                               1177.9532123285148                                1042.4263889050908                                1185.1622397590772                                1181.4468923796758                                1179.784078261775                                 1103.4919047821381                                1187.8985306569266
215                                               1182.1605965777003                                1057.433248110945                                 1189.5100427255047                                1185.698220091058                                 1184.010871468739                                 1113.7347313134937                                1192.4660070181758
220                                               1186.5545539648906                                1070.1234998220998                                1194.0337658368894                                1190.1350251132185                                1188.4243036247826                                1123.0128325849932                                1197.178836729865
225                                               1191.034147351826                                 1081.750441986404                                 1198.6382352853402                                1194.6569631567154                                1192.9234019874775                                1131.8481304980305                                1201.958382795336
230                                               1195.5137407387615                                1093.3773841507082                                1203.242704733791                                 1199.1789012002127                                1197.422500350172                                 1140.6834284110673                                1206.7379288608072
235                                               1199.9933341256974                                1105.0043263150128                                1207.8471741822414                                1203.7008392437097                                1201.9215987128664                                1149.5187263241041                                1211.5174749262787
240                                               1204.4729275126324                                1116.631268479317                                 1212.4516436306922                                1208.2227772872066                                1206.4206970755608                                1158.354024237141                                 1216.2970209917494
245                                               1208.998866195066                                 1126.4005237357055                                1217.0887825757172                                1212.7879867620582                                1210.9650676207307                                1166.2141513786742                                1221.0797187726303
250                                               1213.539793836324                                 1135.5689673611828                                1221.7364874634932                                1217.3671910490234                                1215.524080059361                                 1173.7588895603417                                1225.8634358788158
