% Model:              batchmodel_BILLETTA_r_0.0445341_COIL_kr_1.4848_COIL_kw_3.7744_FUNZ_freq_2540.9_FUNZ_I_eff_162.3068.mph
% Version:            COMSOL 5.6.0.401
% Date:               Jan 26 2022, 17:59
% Table:              Tabella delle sonde 1 - 
% Tempo (s)                                       Temperatura (degC), Punto: (BILLETTA_r-0.01[mm], 0.5)Temperatura (degC), Punto: (0, 0.5)               Temperatura (degC), Punto: (BILLETTA_r-5*FUNZ_depth_billetta, 0.5)Temperatura (degC), Punto: (BILLETTA_r-2*FUNZ_depth_billetta, 0.5)Temperatura (degC), Punto: (BILLETTA_r-FUNZ_depth_billetta, 0.5)Temperatura (degC), Punto: (0.5*BILLETTA_r, 0.5)  Temperatura (degC), Punto: (BILLETTA_r-10*FUNZ_depth_billetta, 0.5)
0                                                 20.37264828986855                                 20                                                20.0057150776924                                  20.11112173986254                                 20.2925264221048                                  20                                                20.000000000720604
5                                                 901.005266498281                                  20.74335541446112                                 776.5638440691627                                 875.2038441634221                                 894.6190063634139                                 46.68330888307503                                 592.0327516451243
10                                                1242.328795660852                                 36.75582379591725                                 1206.5830644815615                                1240.1947544970103                                1243.2747627753356                                149.23433583244594                                1064.7479544589314
15                                                1287.7672400212937                                91.15107541060445                                 1277.083908705134                                 1289.9759242573882                                1289.921839534371                                 267.6249337486214                                 1210.3960504483784
20                                                1302.58105215252                                  168.94626548669578                                1301.1190507072342                                1306.3270868879035                                1305.1578682599566                                377.45801081063235                                1263.5954063357894
25                                                1314.2483253606742                                252.46734424798706                                1316.589775309133                                 1318.6559330972423                                1317.0211920263723                                474.2976671832747                                 1291.1703399135167
30                                                1326.5452441624125                                332.1771816586436                                 1331.0701265326338                                1331.3663709652683                                1329.454760292279                                 558.7957543284382                                 1312.4837235544642
35                                                1342.3570515147976                                405.2443319104442                                 1348.2868301062194                                1347.4992657394764                                1345.391240733422                                 633.436495256595                                  1333.6510253666142
40                                                1360.9528831009366                                471.2693537957106                                 1367.871748224908                                 1366.3709739476249                                1364.1094152830028                                701.4547893841918                                 1355.6551614560099
45                                                1379.2063808701932                                531.2097989678036                                 1386.9718627790312                                1384.8726490499407                                1382.4777792517611                                769.5362401721417                                 1376.8002714781856
47.06551377880964                                 1386.4069018848932                                554.2619804509628                                 1394.5048730879225                                1392.1694348477981                                1389.7232954105493                                798.2114615617264                                 1385.1697977439812
