% Model:              batchmodel_BILLETTA_r_0.0542379_COIL_kr_1.6756_COIL_kw_5.3284_FUNZ_freq_7167.5_FUNZ_I_eff_85.0125.mph
% Version:            COMSOL 5.6.0.401
% Date:               Jan 27 2022, 23:47
% Table:              Tabella delle sonde 1 - 
% Tempo (s)                                       Temperatura (degC), Punto: (0, 0.5)               Temperatura (degC), Punto: (0.5*BILLETTA_r, 0.5)  Temperatura (degC), Punto: (BILLETTA_r-10*FUNZ_depth_billetta, 0.5)Temperatura (degC), Punto: (BILLETTA_r-5*FUNZ_depth_billetta, 0.5)Temperatura (degC), Punto: (BILLETTA_r-2*FUNZ_depth_billetta, 0.5)Temperatura (degC), Punto: (BILLETTA_r-FUNZ_depth_billetta, 0.5)Temperatura (degC), Punto: (BILLETTA_r-0.01[mm], 0.5)
0                                                 20                                                20                                                20.00000000026057                                 20.001408735857467                                20.30893765179053                                 20.61521787383009                                 20.90130903875388
5                                                 20.09934338128903                                 29.28328362285788                                 659.8902669972548                                 808.0389060203987                                 890.4264628702641                                 905.5787317811927                                 910.664516296776
10                                                24.848603447039864                                83.46128183717445                                 1020.6921403900297                                1127.049594529452                                 1153.382416159879                                 1156.1091634911159                                1156.026701183794
15                                                42.52924865372006                                 155.97477759823437                                1094.4176456207115                                1140.669351063857                                 1151.330883081751                                 1152.0057952946595                                1151.2746854062534
20                                                77.94572306510429                                 227.65034827279277                                1128.068539307661                                 1158.388142308244                                 1164.6258373889782                                1164.6489580307634                                1163.6756666168776
25                                                124.07076664719972                                292.8445735213717                                 1141.147830554205                                 1163.5109358894915                                1167.6652218390473                                1167.3955133616073                                1166.3204649587633
30                                                173.1769184177462                                 349.7625386482763                                 1154.5359027646482                                1172.2175357404658                                1175.0702251215416                                1174.6034797923835                                1173.4481612936347
35                                                221.49058276653494                                401.3156872060953                                 1167.1443816501442                                1181.561615696331                                 1183.4866385276223                                1182.873016259758                                 1181.6515756187014
40                                                267.83127708097845                                448.12367304004556                                1179.4917146495904                                1191.5734275463105                                1192.8185898551624                                1192.091091932994                                 1190.8122167337237
45                                                312.2445917749625                                 491.49089113928085                                1192.0887253034803                                1202.3910416997082                                1203.1035225397013                                1202.2813366132073                                1200.9495554683076
50                                                354.18258823281644                                531.4158167468539                                 1205.4666977728652                                1214.5012510214879                                1214.816647252289                                 1213.9177346428119                                1212.5375284920888
55                                                393.9172850772919                                 568.3708465127086                                 1219.5790761061103                                1227.7580775638125                                1227.7849116524744                                1226.8233161142011                                1225.3978149746408
60                                                430.8801475286348                                 602.4396962126326                                 1234.9700200373286                                1242.4218813102611                                1242.1867271117112                                1241.1625599074214                                1239.6879473309173
65                                                465.3068380994699                                 633.587664943935                                  1251.4139707180957                                1258.3847408282281                                1257.9481405956813                                1256.8672881246102                                1255.342627032051
70                                                497.6839331887586                                 662.9756139672535                                 1269.2618821594347                                1275.7884148630865                                1275.1468182515437                                1274.0049762180279                                1272.4249298734817
75                                                527.918677841684                                  690.3822509346454                                 1288.446852794592                                 1294.6058802668772                                1293.7679547579014                                1292.5627614953228                                1290.9228318594533
80                                                556.2584191489473                                 716.6788425822033                                 1308.6714330162213                                1314.4618653584948                                1313.4155407435082                                1312.142180971799                                 1310.4376395598333
85                                                582.8335487252677                                 742.3028215099746                                 1329.815825598882                                 1335.193330185029                                 1333.9146831327057                                1332.5668360691288                                1330.7926769044766
90                                                607.6052565483523                                 768.2382060640324                                 1350.960368213025                                 1355.8669901288677                                1354.3374611981071                                1352.9119880480434                                1351.0664998014636
95                                                630.6999437772979                                 796.9901175589222                                 1370.204634859967                                 1374.4910173429548                                1372.6839857220994                                1371.1813944740738                                1369.2685961238267
99.25010354174373                                 648.9617029251625                                 822.6416000202745                                 1385.8292635664075                                1389.5075823075604                                1387.446963297175                                 1385.8777596662048                                1383.9086125014073
