% Model:              batchmodel_BILLETTA_r_0.0542379_COIL_kr_1.6756_COIL_kw_3.2356_FUNZ_freq_2540.9_FUNZ_I_eff_85.0125.mph
% Version:            COMSOL 5.6.0.401
% Date:               Jan 27 2022, 22:25
% Table:              Tabella delle sonde 1 - 
% Tempo (s)                                       Temperatura (degC), Punto: (0, 0.5)               Temperatura (degC), Punto: (0.5*BILLETTA_r, 0.5)  Temperatura (degC), Punto: (BILLETTA_r-10*FUNZ_depth_billetta, 0.5)Temperatura (degC), Punto: (BILLETTA_r-5*FUNZ_depth_billetta, 0.5)Temperatura (degC), Punto: (BILLETTA_r-2*FUNZ_depth_billetta, 0.5)Temperatura (degC), Punto: (BILLETTA_r-FUNZ_depth_billetta, 0.5)Temperatura (degC), Punto: (BILLETTA_r-0.01[mm], 0.5)
0                                                 20                                                20                                                20.000000000033367                                20.00014978730934                                 20.106383921644294                                20.215874971186906                                20.3363535919911
5                                                 20.04803416578943                                 24.792177589059122                                284.22119840344635                                363.5819690408945                                 410.08204333072376                                419.9890294091141                                 423.79211115498845
10                                                21.80002581067771                                 55.05852197062211                                 523.9729201988347                                 645.9925468615651                                 712.1030111552542                                 724.7532910311965                                 729.1093211368787
15                                                31.485674593388637                                108.54227518974011                                729.342110106365                                  898.5985503528105                                 977.7645964116574                                 990.9763400603844                                 994.6602692362331
20                                                53.99802914734323                                 172.40273474876608                                911.6442254143723                                 1064.1927849984058                                1110.0340338575797                                1115.2084858174117                                1115.3828271842976
25                                                89.61667342761416                                 237.8364052435175                                 1013.9535286342906                                1108.2745294756337                                1130.6096188648112                                1132.4155420265274                                1131.4357910008653
30                                                133.4259603944157                                 299.8654430402546                                 1059.6879756412295                                1122.5028738466617                                1135.9141527950765                                1136.4126746632232                                1134.9802509800825
35                                                180.67401405763718                                356.96631258265325                                1084.7718255939562                                1130.8945584067824                                1139.7512815937162                                1139.6010499815798                                1137.943274968674
40                                                228.8789748448965                                 409.10727780721356                                1100.0928880476285                                1135.985117015944                                 1142.1735591378642                                1141.6479676430804                                1139.859720098977
45                                                275.7296197889543                                 456.168930031669                                  1111.763408325662                                 1140.4100017315136                                1144.6692953972502                                1143.868275086877                                 1141.98160120568
50                                                320.37440438388114                                498.58643671228765                                1121.1193500527597                                1144.519654042269                                 1147.3642484383258                                1146.3579049159466                                1144.3948613958014
55                                                362.2792378344619                                 537.1196468043817                                 1129.2690929600822                                1148.5771195492312                                1150.3038723006625                                1149.1322595099823                                1147.10496267824
60                                                401.21770226248555                                572.2511607479033                                 1136.693142678289                                 1152.671649108332                                 1153.4788299290808                                1152.1685933930075                                1150.0848428463446
65                                                437.3857388672543                                 604.0985552665643                                 1143.3293349085816                                1156.7535660988274                                1156.8436365815319                                1155.422186585441                                 1153.2901932161276
70                                                471.1355783665324                                 633.5001362058914                                 1149.5447687173946                                1160.7865133724886                                1160.2622726313652                                1158.7439508491138                                1156.5681656934048
75                                                502.29215445000466                                660.0392473689927                                 1155.1569879024732                                1164.7885612209534                                1163.802342784722                                 1162.2079862736864                                1159.994729097867
80                                                531.5018983299345                                 684.8000090276566                                 1160.7400680325723                                1168.950912853621                                 1167.5489758977847                                1165.8841513999696                                1163.634408956084
85                                                558.6370479799273                                 707.5681533678426                                 1166.1805476030859                                1173.2357784654464                                1171.4853469241075                                1169.7586392388107                                1167.4744523070717
90                                                583.7871588157554                                 728.9406435808758                                 1171.579011821715                                 1177.6813483205256                                1175.634862222846                                 1173.8528687101461                                1171.535550661924
95                                                607.1561199536922                                 749.8422250603224                                 1177.14399267722                                  1182.3631934887908                                1180.0395207209808                                1178.2041894541485                                1175.8533864829988
100                                               628.6319317410666                                 769.7970068720325                                 1182.7585813874807                                1187.2412837627762                                1184.678576165636                                 1182.794505883132                                 1180.4108002349467
105                                               648.5203007299345                                 791.2291280150961                                 1188.6591717723782                                1192.4768594799193                                1189.6901666201811                                1187.7581131634242                                1185.3402419906438
110                                               666.6916883533041                                 813.1113959415644                                 1194.7455954957504                                1198.0015974652265                                1195.0157581518106                                1193.0381057322138                                1190.5855880179593
115                                               683.3525990092028                                 835.2378893003903                                 1201.202495810864                                 1203.9531838257235                                1200.7805283488174                                1198.7580269232653                                1196.2699707659376
120                                               698.5956793814                                    857.5162229875556                                 1208.1127115592099                                1210.3933904236037                                1207.0406372181947                                1204.9733035472632                                1202.4486327048462
125                                               712.3384119621384                                 880.0286815299027                                 1215.4024607718352                                1217.2671989904275                                1213.7460647956618                                1211.634568674981                                 1209.0723710917114
130                                               724.5807967514178                                 902.7752649274315                                 1223.0717434487415                                1224.5746095261939                                1220.8968110812207                                1218.7418223064192                                1216.1411859265336
135                                               735.3228337492386                                 925.7559731801417                                 1231.1205595899278                                1232.3156220309038                                1228.4928760748694                                1226.2950644415778                                1223.6550772093115
140                                               748.4446290155148                                 947.4239892625391                                 1239.4296273964069                                1240.3040671901008                                1236.3279072111623                                1234.0846462918362                                1231.4030231967204
145                                               762.6052217708508                                 968.3138915938888                                 1248.040170538788                                 1248.6042849329401                                1244.4732197306407                                1242.1830222691742                                1239.4579527925143
150                                               776.9947035313593                                 988.7485528515409                                 1256.9770871356986                                1257.2551350495646                                1252.9718863459693                                1250.633953118766                                 1247.8639133236384
155                                               791.6130742970414                                 1008.7279730354959                                1266.2403771871395                                1266.2566175399743                                1261.823907057149                                 1259.4374388406122                                1256.620904790093
160                                               811.4694405260433                                 1027.8212977180879                                1275.9131264595676                                1275.6526540418263                                1271.0597315911755                                1268.6212927947572                                1265.7550944728137
165                                               837.4815196775675                                 1046.2656252882807                                1285.7764970490603                                1285.1983307431979                                1280.429556412053                                 1277.9357209385084                                1275.0174379346308
170                                               863.4935988290914                                 1064.709952858474                                 1295.6398676385534                                1294.74400744457                                  1289.799381232931                                 1287.2501490822597                                1284.279781396448
175                                               889.5056779806156                                 1083.1542804286673                                1305.5032382280465                                1304.289684145942                                 1299.1692060538085                                1296.564577226011                                 1293.5421248582652
180                                               915.4534397369081                                 1101.4493445787912                                1315.3404219814174                                1313.805011082537                                 1308.5074239624455                                1305.8471910477924                                1302.7725508063459
185                                               940.8519962268591                                 1118.469850639624                                 1324.9539967367086                                1323.0611818361463                                1317.575750924891                                 1314.858142854846                                 1311.7304335867598
190                                               966.2505527168101                                 1135.4903567004567                                1334.567571491999                                 1332.317352589756                                 1326.6440778873357                                1323.8690946619                                   1320.6883163671737
195                                               991.6491092067614                                 1152.51086276129                                  1344.1811462472901                                1341.5735233433657                                1335.7124048497813                                1332.8800464689534                                1329.6461991475871
200                                               1016.2380981599287                                1169.1062902026783                                1353.3122319980562                                1350.355534636074                                 1344.3148819700373                                1341.4278872822579                                1338.1434568128188
205                                               1037.444446121705                                 1183.9255985466907                                1360.427319069966                                 1357.1563508387821                                1350.9708843362778                                1348.0406971563962                                1344.716070361922
210                                               1058.6507940834808                                1198.744906890703                                 1367.5424061418753                                1363.9571670414898                                1357.6268867025183                                1354.653507030535                                 1351.2886839110247
215                                               1079.8571420452577                                1213.5642152347154                                1374.6574932137846                                1370.757983244198                                 1364.2828890687583                                1361.266316904674                                 1357.8612974601274
220                                               1101.0634900070336                                1228.3835235787283                                1381.7725802856944                                1377.558799446906                                 1370.9388914349984                                1367.8791267788124                                1364.4339110092305
224.0344378967044                                 1118.1746287805718                                1240.3410394159346                                1387.5136556699472                                1383.0462935702517                                1376.3095370723813                                1373.2149209307977                                1369.737271245809
