% Model:              batchmodel_BILLETTA_r_0.0542379_COIL_kr_1.6756_COIL_kw_5.8583_FUNZ_freq_6066_FUNZ_I_eff_127.5152.mph
% Version:            COMSOL 5.6.0.401
% Date:               Jan 28 2022, 00:06
% Table:              Tabella delle sonde 1 - 
% Tempo (s)                                       Temperatura (degC), Punto: (0, 0.5)               Temperatura (degC), Punto: (0.5*BILLETTA_r, 0.5)  Temperatura (degC), Punto: (BILLETTA_r-10*FUNZ_depth_billetta, 0.5)Temperatura (degC), Punto: (BILLETTA_r-5*FUNZ_depth_billetta, 0.5)Temperatura (degC), Punto: (BILLETTA_r-2*FUNZ_depth_billetta, 0.5)Temperatura (degC), Punto: (BILLETTA_r-FUNZ_depth_billetta, 0.5)Temperatura (degC), Punto: (BILLETTA_r-0.01[mm], 0.5)
0                                                 20                                                20                                                20.000000003027196                                20.01982057566687                                 20.521325291780727                                20.888515979104                                   21.22126682919304
5                                                 20.06975510282831                                 32.61813532003771                                 1062.622389934012                                 1212.7411814202792                                1248.8520913991256                                1252.7927493859452                                1252.831030443905
10                                                23.9209466434134                                  100.91515734880448                                1235.5545084834907                                1280.7748109391987                                1290.2095975442166                                1290.3668811592465                                1289.0690210910057
15                                                44.644987395163696                                189.9962433078059                                 1281.7473250812614                                1308.437002712974                                 1312.9949255237866                                1312.435664799621                                 1310.8514184800329
20                                                86.01342158514149                                 274.54959110719517                                1317.7574972927573                                1337.6087490338086                                1340.3233410663047                                1339.4580159572206                                1337.70918180035
25                                                140.19201824966154                                351.05416283970237                                1355.3616482098196                                1372.1431789290864                                1373.9142392900199                                1372.8512463873117                                1370.9556315092368
29.088316611489393                                188.16524034622614                                408.24835667912043                                1382.9690044385147                                1397.3157381408741                                1398.331806859986                                 1397.1163971182536                                1395.1098273535763
