% Model:              batchmodel_BILLETTA_r_0.0542379_COIL_kr_1.9397_COIL_kw_4.5299_FUNZ_freq_8940.8_FUNZ_I_eff_174.7421.mph
% Version:            COMSOL 5.6.0.401
% Date:               Jan 28 2022, 01:23
% Table:              Tabella delle sonde 1 - 
% Tempo (s)                                       Temperatura (degC), Punto: (0, 0.5)               Temperatura (degC), Punto: (0.5*BILLETTA_r, 0.5)  Temperatura (degC), Punto: (BILLETTA_r-10*FUNZ_depth_billetta, 0.5)Temperatura (degC), Punto: (BILLETTA_r-5*FUNZ_depth_billetta, 0.5)Temperatura (degC), Punto: (BILLETTA_r-2*FUNZ_depth_billetta, 0.5)Temperatura (degC), Punto: (BILLETTA_r-FUNZ_depth_billetta, 0.5)Temperatura (degC), Punto: (BILLETTA_r-0.01[mm], 0.5)
0                                                 20.000000000000057                                20                                                20.000000186805323                                20.135492227213547                                21.26983115603406                                 21.957862551875735                                22.525431700523995
2.2757523048946053                                20.000031951521464                                20.577268029217976                                1197.049425664558                                 1348.8681035508848                                1386.344111785576                                 1390.448487590672                                 1390.520233582583
