% Model:              batchmodel_BILLETTA_r_0.0542379_COIL_kr_2.7711_COIL_kw_5.3284_FUNZ_freq_4639.7_FUNZ_I_eff_162.3068.mph
% Version:            COMSOL 5.6.0.401
% Date:               Jan 28 2022, 05:05
% Table:              Tabella delle sonde 1 - 
% Tempo (s)                                       Temperatura (degC), Punto: (0, 0.5)               Temperatura (degC), Punto: (0.5*BILLETTA_r, 0.5)  Temperatura (degC), Punto: (BILLETTA_r-10*FUNZ_depth_billetta, 0.5)Temperatura (degC), Punto: (BILLETTA_r-5*FUNZ_depth_billetta, 0.5)Temperatura (degC), Punto: (BILLETTA_r-2*FUNZ_depth_billetta, 0.5)Temperatura (degC), Punto: (BILLETTA_r-FUNZ_depth_billetta, 0.5)Temperatura (degC), Punto: (BILLETTA_r-0.01[mm], 0.5)
0                                                 20                                                20                                                20.0000000142079                                  20.050425829115056                                20.583377573483688                                20.92470968021064                                 21.24353663230977
5                                                 20.101052241299556                                35.434210797194                                   1180.5591556509207                                1313.799394980017                                 1345.709803230453                                 1348.7329379163698                                1348.0188977081812
7.97146339272772                                  21.599382262858853                                76.55573199213433                                 1319.2846096919789                                1382.8241210250153                                1395.875258102344                                 1396.1261630504737                                1394.360781657941
