% Model:              batchmodel_BILLETTA_r_0.0542379_COIL_kr_1.6756_COIL_kw_5.3284_FUNZ_freq_6066_FUNZ_I_eff_61.5962.mph
% Version:            COMSOL 5.6.0.401
% Date:               Jan 27 2022, 23:42
% Table:              Tabella delle sonde 1 - 
% Tempo (s)                                       Temperatura (degC), Punto: (0, 0.5)               Temperatura (degC), Punto: (0.5*BILLETTA_r, 0.5)  Temperatura (degC), Punto: (BILLETTA_r-10*FUNZ_depth_billetta, 0.5)Temperatura (degC), Punto: (BILLETTA_r-5*FUNZ_depth_billetta, 0.5)Temperatura (degC), Punto: (BILLETTA_r-2*FUNZ_depth_billetta, 0.5)Temperatura (degC), Punto: (BILLETTA_r-FUNZ_depth_billetta, 0.5)Temperatura (degC), Punto: (BILLETTA_r-0.01[mm], 0.5)
0                                                 20                                                20                                                20.000000000021714                                20.000101840122625                                20.140812270942547                                20.333399667327                                   20.53370111122888
5                                                 20.099367820757664                                25.61931587867008                                 330.02158418570366                                388.3863759163619                                 422.9170221837164                                 430.2801865413612                                 433.124843562563
10                                                23.033351353360956                                58.017909953885635                                590.8995294438886                                 681.3182207223101                                 731.0713100769779                                 740.8096804532892                                 744.2257398416965
15                                                36.05183982153932                                 112.88252809420158                                804.3346451620251                                 928.9515068204486                                 985.4270305942713                                 995.0012778140609                                 997.7969078655809
20                                                61.44143794059585                                 174.51937412142695                                953.0084750450657                                 1047.3046273498103                                1077.5380082449065                                1081.297011707521                                 1081.6882213192175
25                                                96.00628857630494                                 236.20715062765294                                1009.8357447335501                                1069.6660072529958                                1086.0889381369075                                1087.8522607324298                                1087.5654993926182
30                                                137.57626874257437                                294.4661491174239                                 1041.4535484379671                                1083.6922061092241                                1094.3209943582297                                1095.1246637042477                                1094.4845115018047
35                                                182.7731122876947                                 348.03423578666764                                1061.5704643975932                                1094.0987534693672                                1101.8852588138611                                1102.2298655590948                                1101.416051319377
40                                                228.59267950087633                                396.6093782514637                                 1072.1858007475103                                1099.1457780133633                                1105.2067625145187                                1105.3009913100086                                1104.397944091184
45                                                273.41814759256295                                440.39444046747144                                1077.004976396085                                 1101.1806144833904                                1106.3694482750311                                1106.3410811310696                                1105.3958126046018
50                                                315.3145735772508                                 480.01966380988654                                1086.472034270078                                 1106.6330180490113                                1110.6139262991042                                1110.3950163000259                                1109.3760686102246
55                                                354.5609619487983                                 515.7221354510984                                 1097.458236335874                                 1113.505590718852                                 1116.2596710007242                                1115.839088188572                                 1114.7387998974432
60                                                391.3030097659664                                 548.2298376406604                                 1105.1414553365203                                1118.6537837524183                                1120.616958781969                                 1120.0688030628407                                1118.9160589245612
65                                                425.478161758757                                  577.5514179669906                                 1111.6387786134615                                1123.3170967532433                                1124.6921728604043                                1124.0482769660762                                1122.854590544352
70                                                457.082914681258                                  604.2470144895169                                 1117.150133972039                                 1127.3722112331943                                1128.2830156397936                                1127.5629599048684                                1126.3359447616353
75                                                486.51667420813396                                628.754146066216                                  1122.1556830411755                                1131.2136519456326                                1131.7499446234906                                1130.9674364825823                                1129.7119605536259
80                                                514.3156503386435                                 651.9943606832846                                 1127.4210101972458                                1135.3000571268722                                1135.4588878543423                                1134.6124598700962                                1133.327379911536
85                                                540.2282577643604                                 673.5352756275006                                 1132.5869095662038                                1139.4162374997663                                1139.2381549132056                                1138.333459573017                                 1137.0204527368846
90                                                564.254496485285                                  693.3768908988632                                 1137.6533811480485                                1143.5621930643156                                1143.0877458000805                                1142.1304355913435                                1140.7911790296725
95                                                586.725731412708                                  712.2035967982708                                 1142.6850567209417                                1147.7830593688814                                1147.0437430165794                                1146.0384626128703                                1144.6742785651018
100                                               607.7277391851993                                 730.1925536027477                                 1147.698666772891                                 1152.0905201358082                                1151.1154868265426                                1150.0666200202195                                1148.67873885364
105                                               627.0895051171753                                 746.9905531477116                                 1152.6608553786205                                1156.4612812825044                                1155.284355349807                                 1154.1968060575928                                1152.7866413069355
110                                               644.8110292086366                                 762.5975954331628                                 1157.5716225381288                                1160.8953428089699                                1159.5503485863742                                1158.4290207249892                                1156.9979859249875
115                                               661.2614901754125                                 778.9517498557772                                 1162.6407455927656                                1165.5194250673699                                1164.014634953795                                 1162.8603237815669                                1161.4081754577328
120                                               676.4067566941102                                 795.8738379567216                                 1167.8488302005198                                1170.3218125033277                                1168.667861226034                                 1167.4817418551183                                1166.0083897268382
125                                               690.1345995146885                                 812.7746923068074                                 1173.132104663062                                 1175.2639825003462                                1173.4792724999966                                1172.2637690626862                                1170.7696265753034
130                                               702.4450186371473                                 829.6543129060354                                 1178.4905689803923                                1180.3459350584258                                1178.4488687756839                                1177.2064054042708                                1175.69188600313
135                                               713.7737789565356                                 846.652372448718                                  1184.1879980360563                                1185.7526983456478                                1183.7374863649084                                1182.4664165946551                                1180.930104088396
140                                               723.9706061717036                                 863.7207045571453                                 1190.1334285910775                                1191.4204650682914                                1189.2896605787237                                1187.9897416975382                                1186.4308508482823
145                                               732.9699084596893                                 880.8382855400065                                 1196.2871569528006                                1197.3213845780333                                1195.0811821542702                                1193.7527841609094                                1192.170805129755
150                                               740.7716858204934                                 898.005115397301                                  1202.6491831212252                                1203.4554568748727                                1201.1120510915462                                1199.7555439847697                                1198.1499669328146
155                                               749.9970957251362                                 914.4799072121924                                 1209.2219579341709                                1209.7961966195217                                1207.3490692085493                                1205.9648356045432                                1204.3362304944849
160                                               759.2432454333001                                 930.65941167426                                   1216.0041696571766                                1216.3577792633305                                1213.8100047962112                                1212.3984205580778                                1210.746779422504
165                                               768.4213298091064                                 946.5687436749596                                 1222.9957352555562                                1223.1411021328354                                1220.4959826130007                                1219.0574231763617                                1217.3827014640497
170                                               778.2136120728768                                 962.1857580731381                                 1230.2044234755049                                1230.1534649787468                                1227.4139689958638                                1225.9486882834299                                1224.2507292616965
175                                               795.989474980205                                  977.418131372097                                  1237.600841108455                                 1237.3537550182518                                1234.5174872533867                                1233.0242307742406                                1231.3016960539303
180                                               813.7653378875331                                 992.6505046710566                                 1244.9972587414054                                1244.5540450577573                                1241.6210055109104                                1240.0997732650517                                1238.352662846164
185                                               831.5412007948611                                 1007.8828779700158                                1252.393676374356                                 1251.7543350972628                                1248.7245237684338                                1247.1753157558628                                1245.403629638398
190                                               849.9684296029765                                 1022.989828560734                                 1259.7978431569572                                1258.9635260127147                                1255.8370556873124                                1254.2597803205558                                1252.463359183951
195                                               871.0365559093201                                 1037.588265402093                                 1267.2334280870268                                1266.2088046340073                                1262.9861325891166                                1261.3804185359818                                1259.5586164310462
200                                               892.104682215664                                  1052.1867022434517                                1274.6690130170964                                1273.4540832553002                                1270.1352094909207                                1268.5010567514078                                1266.6538736781413
205                                               913.1728085220078                                 1066.785139084811                                 1282.1045979471655                                1280.6993618765923                                1277.2842863927249                                1275.6216949668333                                1273.7491309252364
210                                               933.7757492769343                                 1081.03719409621                                  1289.468015711716                                 1287.8751412311203                                1284.3646503162718                                1282.67370800267                                  1280.7757508930285
215                                               953.3775634003802                                 1094.5438001709917                                1296.676122394269                                 1294.9013510931863                                1291.297136920215                                 1289.5780326705703                                1287.65465645307
220                                               972.9793775238257                                 1108.0504062457735                                1303.8842290768212                                1301.927560955252                                 1298.2296235241588                                1296.4823573384697                                1294.5335620131114
225                                               992.5811916472716                                 1121.5570123205553                                1311.0923357593742                                1308.953770817318                                 1305.162110128102                                 1303.3866820063695                                1301.4124675731528
230                                               1012.1830057707172                                1135.063618395337                                 1318.3004424419269                                1315.9799806793835                                1312.0945967320458                                1310.2910066742697                                1308.2913731331942
235                                               1030.9769657587972                                1148.221467885282                                 1325.3961783892591                                1322.8968262847093                                1318.9189314732648                                1317.087440810938                                 1315.0625577429641
240                                               1048.032341461956                                 1160.6287577245225                                1332.2500810825577                                1329.578308883551                                 1325.5105124032625                                1323.6516835483435                                1321.6019159089492
245                                               1065.0877171651146                                1173.0360475637635                                1339.1039837758562                                1336.2597914823932                                1332.1020933332593                                1330.215926285749                                 1328.1412740749347
250                                               1082.1430928682735                                1185.443337403004                                 1345.9578864691548                                1342.941274081235                                 1338.6936742632565                                1336.780169023154                                 1334.6806322409197
