% Model:              batchmodel_BILLETTA_r_0.0542379_COIL_kr_1.6756_COIL_kw_5.3284_FUNZ_freq_4639.7_FUNZ_I_eff_174.7421.mph
% Version:            COMSOL 5.6.0.401
% Date:               Jan 27 2022, 23:41
% Table:              Tabella delle sonde 1 - 
% Tempo (s)                                       Temperatura (degC), Punto: (0, 0.5)               Temperatura (degC), Punto: (0.5*BILLETTA_r, 0.5)  Temperatura (degC), Punto: (BILLETTA_r-10*FUNZ_depth_billetta, 0.5)Temperatura (degC), Punto: (BILLETTA_r-5*FUNZ_depth_billetta, 0.5)Temperatura (degC), Punto: (BILLETTA_r-2*FUNZ_depth_billetta, 0.5)Temperatura (degC), Punto: (BILLETTA_r-FUNZ_depth_billetta, 0.5)Temperatura (degC), Punto: (BILLETTA_r-0.01[mm], 0.5)
0                                                 20                                                20                                                20.000000022062466                                20.06674410775821                                 20.651430333278086                                21.013846122162988                                21.350451655328584
5                                                 20.106018964245095                                36.93396629324599                                 1247.7256510065035                                1362.8482402156123                                1388.9598673723049                                1391.020308938449                                 1389.8725543381465
5.219572523514702                                 20.133791689016903                                39.25546947345123                                 1264.174442643936                                 1370.4145485509844                                1394.013478307546                                 1395.7137765186972                                1394.4346065129453
