% Model:              batchmodel_BILLETTA_r_0.0542379_COIL_kr_1.9397_COIL_kw_5.3284_FUNZ_freq_8940.8_FUNZ_I_eff_127.5152.mph
% Version:            COMSOL 5.6.0.401
% Date:               Jan 28 2022, 01:44
% Table:              Tabella delle sonde 1 - 
% Tempo (s)                                       Temperatura (degC), Punto: (0, 0.5)               Temperatura (degC), Punto: (0.5*BILLETTA_r, 0.5)  Temperatura (degC), Punto: (BILLETTA_r-10*FUNZ_depth_billetta, 0.5)Temperatura (degC), Punto: (BILLETTA_r-5*FUNZ_depth_billetta, 0.5)Temperatura (degC), Punto: (BILLETTA_r-2*FUNZ_depth_billetta, 0.5)Temperatura (degC), Punto: (BILLETTA_r-FUNZ_depth_billetta, 0.5)Temperatura (degC), Punto: (BILLETTA_r-0.01[mm], 0.5)
0                                                 20.000000000000057                                20                                                20.000000011634597                                20.03232377716938                                 20.774335265939897                                21.30971881038431                                 21.75978748006213
5                                                 20.051167853504467                                33.248998935715576                                1180.9738888027118                                1258.806136137764                                 1277.5089413960495                                1279.2033549936264                                1278.6882990609874
10                                                24.11130465324686                                 106.15946091850378                                1285.4337842985806                                1316.087896624886                                 1322.3123414509078                                1322.1980257476716                                1321.0060371807572
15                                                45.983448839314065                                197.05987778224267                                1335.48884709083                                  1356.3282209358886                                1359.9252065223532                                1359.3897819199865                                1357.986887305442
18.625360231270605                                75.66353506812095                                 259.6047055268557                                 1372.3679506257504                                1389.8571341730071                                1392.4207457789316                                1391.689154183588                                 1390.1566670533366
