% Model:              batchmodel_BILLETTA_r_0.0542379_COIL_kr_1.4848_COIL_kw_5.8583_FUNZ_freq_6066_FUNZ_I_eff_61.5962.mph
% Version:            COMSOL 5.6.0.401
% Date:               Jan 27 2022, 22:12
% Table:              Tabella delle sonde 1 - 
% Tempo (s)                                       Temperatura (degC), Punto: (0, 0.5)               Temperatura (degC), Punto: (0.5*BILLETTA_r, 0.5)  Temperatura (degC), Punto: (BILLETTA_r-10*FUNZ_depth_billetta, 0.5)Temperatura (degC), Punto: (BILLETTA_r-5*FUNZ_depth_billetta, 0.5)Temperatura (degC), Punto: (BILLETTA_r-2*FUNZ_depth_billetta, 0.5)Temperatura (degC), Punto: (BILLETTA_r-FUNZ_depth_billetta, 0.5)Temperatura (degC), Punto: (BILLETTA_r-0.01[mm], 0.5)
0                                                 20                                                20                                                20.00000000002234                                 20.000105271665177                                20.141427609894095                                20.332449251574417                                20.530827030822593
5                                                 20.069486276797704                                24.67961101094744                                 315.0863385818408                                 371.2464895418552                                 405.6043209437362                                 413.3317859266052                                 416.34900333903954
10                                                22.468559907418353                                54.761342124597604                                571.5044835412378                                 656.7033398317219                                 702.2639792389582                                 711.2282395777153                                 714.3930471339389
15                                                34.19615507821874                                 107.86384318513058                                787.8170731996166                                 909.8256792876663                                 966.5330301355385                                 976.3602714304176                                 979.3008728598039
20                                                58.472518153998806                                169.3537897028457                                 952.0449330747036                                 1053.4710927676692                                1086.8307808647537                                1090.9723080858225                                1091.4582069494236
25                                                93.65659659490257                                 230.95003401377016                                1008.7513659206426                                1074.968982940191                                 1094.3865237181012                                1096.448244604952                                 1096.215814526076
30                                                136.38611047485534                                287.21006762210743                                1035.1050232661291                                1082.8057342850357                                1095.4572697848203                                1096.5379862596888                                1095.9851893871405
35                                                180.34616352384757                                339.61069569869903                                1059.6834292388703                                1095.3427735910877                                1103.2638728435372                                1103.5974419933045                                1102.7748230758566
40                                                224.30700300218706                                386.35699704811543                                1069.017672663712                                 1097.97164873483                                  1104.5639814393085                                1104.7311609126282                                1103.8530402419492
45                                                266.9909032428194                                 429.62853978642147                                1076.837986448014                                 1101.2469125243665                                1106.689350354981                                 1106.692674929715                                 1105.7559487934009
50                                                305.1390610689381                                 465.34566038802075                                1085.0715286509403                                1106.0778704767313                                1110.4247196645701                                1110.2558555157198                                1109.2530531942193
55                                                343.07789327472824                                500.75196471267395                                1093.2902488679192                                1110.942981847158                                 1114.2027945821987                                1113.862629459848                                 1112.7939298263868
60                                                376.9490422855614                                 531.0672015337761                                 1100.288339800822                                 1115.537574532274                                 1118.0330427151944                                1117.570311394154                                 1116.4520282325066
65                                                409.7596862668107                                 560.2763217058445                                 1106.9801752355488                                1120.0136574898766                                1121.806687902143                                 1121.230903123978                                 1120.0663662850602
70                                                439.6146361845699                                 586.4026253689136                                 1112.8184573795138                                1124.1594464004856                                1125.4225771266592                                1124.760251499029                                 1123.5587414862907
75                                                467.81576549827616                                610.8463881813553                                 1118.334007815889                                 1128.2019741761692                                1129.0018308767926                                1128.2630264585619                                1127.0280006254293
80                                                494.40814693259176                                633.6534656007133                                 1123.535622176656                                 1132.1440550645502                                1132.5454476046411                                1131.739952226375                                 1130.4747737006146
85                                                519.8862058338091                                 655.3468459099718                                 1128.6230788820199                                1136.1077488295418                                1136.1507918421162                                1135.2844690368156                                1133.9909558297059
90                                                543.9549849917549                                 675.6317374462004                                 1133.5661608067267                                1140.0987763226922                                1139.8342026414111                                1138.9144679984038                                1137.5949193423407
95                                                566.8380463072547                                 694.7315766342066                                 1138.3877709269582                                1144.112801442348                                 1143.5832958686915                                1142.6163886010363                                1141.2727389883648
100                                               588.4686360311514                                 712.7616628621852                                 1143.138434092039                                 1148.1761010335117                                1147.4171027268035                                1146.4081367002877                                1145.0418936313872
105                                               608.6033494365273                                 730.142413207106                                  1148.002379462242                                 1152.3844885652757                                1151.4050168421682                                1150.3550025598715                                1148.9661165909151
110                                               627.4011330593115                                 746.5992897054879                                 1152.8593029366034                                1156.6753965632925                                1155.5017232503842                                1154.414350766011                                 1153.0037891585234
115                                               644.861986899504                                  762.1322923573306                                 1157.7092045151212                                1161.0488250275607                                1159.7072219514516                                1158.5861813187066                                1157.1549113342116
120                                               661.0655621446368                                 778.3006926385136                                 1162.7295262684238                                1165.6274910604056                                1164.1272761362225                                1162.9734988129203                                1161.5212921487755
125                                               676.0078879009408                                 795.0267553440746                                 1167.9114220809088                                1170.4052767796943                                1168.756613135089                                 1167.5711681048188                                1166.0978560614913
130                                               689.6654381064631                                 811.8499284285327                                 1173.202482022783                                 1175.3459360195957                                1173.5639943506462                                1172.3487653858247                                1170.8545323899234
135                                               702.0421936685808                                 828.7760151123069                                 1178.6406388956816                                1180.4778080650035                                1178.574697343447                                 1177.3310479672145                                1175.8158322907116
140                                               713.1556783923621                                 845.8305609541713                                 1184.3928714706608                                1185.9256413858466                                1183.8999929876272                                1182.6269966053037                                1181.0896529566849
145                                               722.9947307067639                                 862.9972950262087                                 1190.3528246833607                                1191.6099789860996                                1189.4690086752184                                1188.167197354363                                 1186.6072706044833
150                                               731.559350611786                                  880.276217328419                                  1196.52049853378                                  1197.530820865762                                 1195.2817444062198                                1193.9516502143924                                1192.368685234108
155                                               740.1325338389375                                 897.1609608540435                                 1202.9063407648719                                1203.679835625087                                 1201.325683117666                                 1199.9677171540948                                1198.361756300665
160                                               748.7461566751202                                 913.6389448129916                                 1209.5106109529092                                1210.0568162687732                                1207.6005138206092                                1206.2150841790417                                1204.5861821698759
165                                               756.9660659581749                                 929.8815188300499                                 1216.3297736842296                                1216.6645820607164                                1214.1104721662964                                1212.6980278749738                                1211.0460710829657
170                                               765.2996919387766                                 945.8675218861491                                 1223.3414311228644                                1223.477734413646                                 1220.829172024331                                 1219.3900073443315                                1217.714839159175
175                                               776.4869622517757                                 961.4826926402383                                 1230.4246435935643                                1230.35913075268                                  1227.6141384678572                                1226.1477119772699                                1224.448943695957
180                                               788.8222642008676                                 976.7981591000481                                 1237.6546963859723                                1237.3941427182763                                1234.5540625415065                                1233.0603530334438                                1231.3377404313296
185                                               802.3055977860528                                 991.8139212655782                                 1245.0315895000895                                1244.5827703104337                                1241.6489442452794                                1240.127930512852                                 1238.3812293652918
190                                               818.1533074399503                                 1006.6946648181028                                1252.423455190174                                 1251.785625220988                                 1248.7572146770217                                1247.2085310876805                                1245.4373406849
195                                               836.4941984047886                                 1021.457829208569                                 1259.816329272664                                 1258.987946873644                                 1255.863882345635                                 1254.2871267937494                                1252.491029854922
200                                               856.8600100143921                                 1036.0400147742216                                1267.2609773669114                                1266.2433961068032                                1263.023447560945                                 1261.4183505357182                                1259.596990022685
205                                               878.8445596989972                                 1050.4468839357964                                1274.7355372390775                                1273.529982169452                                 1270.214023137156                                 1268.580376678317                                 1266.7334656103403
210                                               899.6947550871029                                 1064.7168163986075                                1282.0918273725647                                1280.6986524597164                                1277.287258434109                                 1275.625271768858                                 1273.7529980121494
215                                               921.0884715341846                                 1078.8264216065063                                1289.4201571654185                                1287.840247259579                                 1284.3335659224035                                1282.6431940225493                                1280.7454560472925
220                                               943.0257090402434                                 1092.7756995594923                                1296.7205266176402                                1294.9547665690416                                1291.3529456020378                                1289.6341434393898                                1287.7108397157695
225                                               965.5064676052792                                 1106.5646502575669                                1303.9929357292294                                1302.0422103881024                                1298.3453974730132                                1296.59812001938                                  1294.6491490175808
230                                               987.7872790325911                                 1120.0726196711566                                1311.1919319645622                                1309.058514367725                                 1305.2674769540422                                1303.4918438457812                                1301.5172413665819
235                                               1006.0751806991276                                1132.826930401358                                 1318.120802926323                                 1315.8129562306954                                1311.9312783031896                                1310.1282059334735                                1308.1287090502728
240                                               1024.3630823656645                                1145.5812411315592                                1325.049673888083                                 1322.5673980936658                                1318.5950796523375                                1316.7645680211658                                1314.7401767339638
245                                               1042.650984032201                                 1158.3355518617605                                1331.9785448498442                                1329.3218399566363                                1325.2588810014845                                1323.4009301088581                                1321.351644417654
250                                               1060.9388856987375                                1171.0898625919617                                1338.9074158116046                                1336.0762818196067                                1331.922682350632                                 1330.0372921965504                                1327.963112101345
