% Model:              batchmodel_BILLETTA_r_0.0542379_COIL_kr_2.7711_COIL_kw_5.8583_FUNZ_freq_6066_FUNZ_I_eff_61.5962.mph
% Version:            COMSOL 5.6.0.401
% Date:               Jan 28 2022, 05:29
% Table:              Tabella delle sonde 1 - 
% Tempo (s)                                       Temperatura (degC), Punto: (0, 0.5)               Temperatura (degC), Punto: (0.5*BILLETTA_r, 0.5)  Temperatura (degC), Punto: (BILLETTA_r-10*FUNZ_depth_billetta, 0.5)Temperatura (degC), Punto: (BILLETTA_r-5*FUNZ_depth_billetta, 0.5)Temperatura (degC), Punto: (BILLETTA_r-2*FUNZ_depth_billetta, 0.5)Temperatura (degC), Punto: (BILLETTA_r-FUNZ_depth_billetta, 0.5)Temperatura (degC), Punto: (BILLETTA_r-0.01[mm], 0.5)
0                                                 20                                                20.000000000000057                                20.000000000021714                                20.000101839987394                                20.14081220199739                                 20.333399545489044                                20.533700964117486
5                                                 20.04009141460631                                 24.02831010679097                                 298.8873854545087                                 352.9215753624899                                 385.7609910285489                                 392.97880167285894                                395.80858499491535
10                                                22.457189376528504                                54.325808610868364                                554.5784837344164                                 639.4989495480645                                 685.913595246353                                  695.1497712850621                                 698.4599035655835
15                                                34.448774152730095                                106.32471512712692                                771.7723759147572                                 886.4555005840106                                 942.3435466467885                                 952.3463824701331                                 955.4243628870064
20                                                59.13730152951172                                 167.01287002661996                                933.254236348885                                  1035.0940803309581                                1070.2012777191494                                1074.906720512954                                 1075.6613617184912
25                                                94.25242719973829                                 227.44792305011833                                1000.458551750089                                 1069.9550544887347                                1088.7549465705256                                1090.7126362486542                                1090.464511069205
30                                                134.34877214242385                                285.25758637910474                                1048.939105005179                                 1100.9104614145808                                1112.8978294186204                                1113.7293355622837                                1113.0404614163813
35                                                177.7619967716011                                 338.8929184978051                                 1064.2543081456506                                1100.0878001846731                                1108.3611530994754                                1108.7346092742796                                1107.9125590863496
40                                                222.09309834217254                                388.1174752101283                                 1072.2123928846831                                1098.6209083562644                                1104.6296370483155                                1104.7198479369417                                1103.8167462894448
45                                                265.9487018321847                                 432.81230402235826                                1080.851239851912                                 1103.3250203178818                                1108.0397723037568                                1107.9277163531792                                1106.94890859721
50                                                308.1730823810651                                 473.04061541901285                                1089.5707019204174                                1108.9550976989403                                1112.6950321977179                                1112.4266962497682                                1111.3851713198887
55                                                348.30297518351927                                509.1799781987021                                 1097.129518936284                                 1114.1151861431008                                1117.0932862724185                                1116.7000327935425                                1115.6066917336125
60                                                385.62132574830696                                542.2405848551533                                 1103.5418532102576                                1118.3669802940149                                1120.6719885609905                                1120.1704162146366                                1119.0327926404366
65                                                420.25507851791815                                572.0657292735806                                 1108.8252072780242                                1121.827458243165                                 1123.5740460869856                                1122.983740501657                                 1121.809986148312
70                                                452.3858587161445                                 599.2665478499438                                 1113.689644496685                                 1125.0796544946625                                1126.3359405903839                                1125.667960357811                                 1124.4621776261129
75                                                482.09934217579143                                624.1313244392512                                 1118.4701143198095                                1128.398596743732                                 1129.2107400035884                                1128.4721213613302                                1127.2365025093932
80                                                509.3971848908477                                 646.5173662894731                                 1122.9423387375782                                1131.6063752910977                                1132.0363753678553                                1131.2368823089523                                1129.974872523118
85                                                535.0561191227071                                 667.5782198726389                                 1127.8706497745743                                1135.3920859233008                                1135.463025818961                                 1134.6035827087194                                1133.3140115426554
90                                                558.7208906847419                                 686.7862874127496                                 1132.9054647429111                                1139.4405567653944                                1139.1933187981463                                1138.27889298414                                  1136.9627010443346
95                                                580.7409049339066                                 704.642652081059                                  1138.0125025744114                                1143.6911623773858                                1143.1609470866824                                1142.1959837454165                                1140.8540734076432
100                                               601.2658073024716                                 721.361920798364                                  1143.1770811665738                                1148.1179377304265                                1147.337512229276                                 1146.3262328986816                                1144.959490165032
105                                               620.2193855011285                                 736.979239584902                                  1148.402012788867                                 1152.724328806793                                 1151.7264628942353                                1150.6730781380393                                1149.2823865329092
110                                               638.1779190366155                                 753.5943978667254                                 1153.5896313556932                                1157.3241494073518                                1156.1213402606932                                1155.0280986126386                                1153.6141832512894
115                                               654.8759556267776                                 770.240167261299                                  1158.7849249067244                                1162.0031626919722                                1160.617245689239                                 1159.4872994551633                                1158.050958421035
120                                               670.3134952716146                                 786.9165477686221                                 1163.9878934419603                                1166.7613686606537                                1165.2141791798713                                1164.0506806656135                                1162.5927120421466
125                                               684.4905379711264                                 803.6235393886956                                 1169.1985369614008                                1171.5987673133973                                1169.9121407325915                                1168.7182422439882                                1167.2394441146225
130                                               697.4588714679735                                 820.3841066978586                                 1174.4722422209825                                1176.5576154057585                                1174.7489981189306                                1173.527077311986                                 1172.0278853620757
135                                               709.5545441749842                                 837.347265834563                                  1180.1684114743607                                1181.9121151892027                                1179.97047366365                                  1178.717881525235                                 1177.1963798546944
140                                               720.5298083128553                                 854.4031563859259                                 1186.0220795950222                                1187.460114246735                                 1185.3954114440885                                1184.1132048143595                                1182.5692112020852
145                                               730.3846638815866                                 871.5517783519484                                 1192.033246582966                                 1193.2016125783553                                1191.0238114602453                                1189.7130471793598                                1188.1463794042493
150                                               739.1191108811778                                 888.7931317326298                                 1198.2019124381923                                1199.1366101840636                                1196.8556737121207                                1195.5174086202355                                1193.9278844611854
155                                               747.2785707343045                                 905.9985950054062                                 1204.5440813923624                                1205.2723852740046                                1202.8957448085548                                1201.5307509736936                                1199.918215609479
160                                               758.0596015448701                                 922.4143544160014                                 1211.1535496446813                                1211.6515933447413                                1209.1718432589064                                1207.7792237815197                                1206.1436829737213
165                                               769.081334218312                                  938.601867573593                                  1217.9604556551371                                1218.2424636133946                                1215.6632492054305                                1214.2433502709318                                1212.584690175409
170                                               780.3437687546303                                 954.5611344781802                                 1224.9647994237303                                1225.0449960799651                                1222.3699626481257                                1220.92313044193                                  1219.2412372145413
175                                               791.8469051538253                                 970.2921551297628                                 1232.1665809504607                                1232.0591907444523                                1229.291983586992                                 1227.8185642945136                                1226.1133240911186
180                                               804.9708540958828                                 985.6909755118076                                 1239.5686171254847                                1239.2825154486131                                1236.424820770213                                 1234.9247337747306                                1233.1957447339882
185                                               825.0525044378206                                 1000.4782644565779                                1247.0668296735084                                1246.5813587539337                                1243.624959469441                                 1242.0962281635648                                1240.3420117959904
190                                               845.1341547797582                                 1015.2655534013485                                1254.5650422215313                                1253.8802020592539                                1250.8250981686683                                1249.267722552399                                 1247.488278857993
195                                               865.215805121696                                  1030.0528423461183                                1262.0632547695545                                1261.179045364575                                 1258.0252368678962                                1256.439216941233                                 1254.6345459199947
200                                               885.2974554636338                                 1044.840131290889                                 1269.5614673175783                                1268.4778886698955                                1265.225375567124                                 1263.6107113300673                                1261.7808129819973
205                                               905.3482554600422                                 1059.4705982675432                                1277.0368301161293                                1275.755734531972                                 1272.4049895263943                                1270.7617021507035                                1268.9065208496386
210                                               925.2578233827575                                 1073.3831383821862                                1284.4075873601578                                1282.9374546489162                                1279.4906417637953                                1277.8188281732296                                1275.9381092640542
215                                               945.1673913054725                                 1087.2956784968287                                1291.7783446041863                                1290.11917476586                                  1286.5762940011964                                1284.8759541957552                                1282.9696976784699
220                                               965.0769592281878                                 1101.2082186114708                                1299.1491018482152                                1297.3008948828046                                1293.6619462385975                                1291.9330802182817                                1290.0012860928855
225                                               984.986527150903                                  1115.1207587261138                                1306.5198590922437                                1304.4826149997484                                1300.7475984759985                                1298.9902062408078                                1297.0328745073011
230                                               1004.4689125455781                                1128.812193274814                                 1313.8346012744182                                1311.6106492805775                                1307.7802847296498                                1305.9944589689426                                1304.0115967602146
235                                               1022.1421062687335                                1141.567207623315                                 1320.912110010153                                 1318.51131478763                                  1314.5886509084307                                1312.7747841776218                                1310.7664217026913
240                                               1039.8152999918889                                1154.322221971816                                 1327.9896187458885                                1325.4119802946825                                1321.3970170872117                                1319.5551093863014                                1317.5212466451676
245                                               1057.4884937150441                                1167.0772363203164                                1335.0671274816232                                1332.312645801735                                 1328.2053832659922                                1326.3354345949806                                1324.2760715876434
250                                               1075.1616874381994                                1179.8322506688169                                1342.1446362173579                                1339.2133113087875                                1335.0137494447736                                1333.1157598036602                                1331.0308965301201
