% Model:              batchmodel_BILLETTA_r_0.0542379_COIL_kr_1.4848_COIL_kw_5.8583_FUNZ_freq_6066_FUNZ_I_eff_85.0125.mph
% Version:            COMSOL 5.6.0.401
% Date:               Jan 27 2022, 22:12
% Table:              Tabella delle sonde 1 - 
% Tempo (s)                                       Temperatura (degC), Punto: (0, 0.5)               Temperatura (degC), Punto: (0.5*BILLETTA_r, 0.5)  Temperatura (degC), Punto: (BILLETTA_r-10*FUNZ_depth_billetta, 0.5)Temperatura (degC), Punto: (BILLETTA_r-5*FUNZ_depth_billetta, 0.5)Temperatura (degC), Punto: (BILLETTA_r-2*FUNZ_depth_billetta, 0.5)Temperatura (degC), Punto: (BILLETTA_r-FUNZ_depth_billetta, 0.5)Temperatura (degC), Punto: (BILLETTA_r-0.01[mm], 0.5)
0                                                 20                                                20                                                20.00000000016007                                 20.000939867118973                                20.25948571552317                                 20.518198788960433                                20.767113253455875
5                                                 20.168588194607594                                29.02992905530982                                 563.4436219527777                                 688.7942724312205                                 758.6432853915961                                 772.4573586459795                                 777.3072363218263
10                                                24.400516782475336                                78.19846454023713                                 953.3060942583478                                 1093.3110429525832                                1132.861425476407                                 1137.370407655365                                 1137.8184433656184
15                                                42.63493832446625                                 148.72351885572158                                1068.7645731257253                                1134.699221864238                                 1150.3794471555602                                1151.676273356839                                 1151.0615958395438
20                                                76.24503081785087                                 219.62257880683018                                1112.6964917642335                                1152.8729649610555                                1161.5666521472963                                1161.8612248340514                                1160.8921194484128
25                                                120.6121546466332                                 284.9341419120601                                 1126.4931208383682                                1154.0525725698444                                1159.4309033613854                                1159.2709590229606                                1158.15846401491
30                                                168.9367139435472                                 342.42994515745727                                1140.3812056434895                                1161.7292044001083                                1165.3975928726945                                1164.985216587413                                 1163.776325671622
35                                                216.90236574728033                                394.54677364076997                                1152.5704398354205                                1169.655321897695                                 1172.1348016868856                                1171.5413288828554                                1170.2575770759731
40                                                263.11792415543266                                441.7041569934129                                 1163.9270240295014                                1177.975477661013                                 1179.5913915501978                                1178.8607718409548                                1177.5147715451312
45                                                307.4866115561083                                 485.57759222186485                                1175.2720548348857                                1186.9630436051675                                1187.8940639618636                                1187.049480751955                                 1185.6466525598762
50                                                349.7094063229664                                 525.9360580843612                                 1186.73835482072                                  1196.7720155249522                                1197.2021461852746                                1196.2672031957568                                1194.8126840921136
55                                                389.3505356672363                                 562.9700840973109                                 1198.4797825703681                                1207.230181451007                                 1207.2604978252639                                1206.2491766748412                                1204.747146882221
60                                                426.397617507016                                  596.6789613873976                                 1210.4998348873064                                1218.3349434043998                                1218.064979004721                                 1216.9910855060784                                1215.445711601878
65                                                461.0181323564366                                 627.8758801538013                                 1223.3110289063543                                1230.4263766518688                                1229.9041518754343                                1228.7722644353275                                1227.182688656595
70                                                493.22012470202674                                656.6418125717775                                 1236.9671797941796                                1243.5367200219316                                1242.8040064918819                                1241.6176550126306                                1239.9825065893683
75                                                523.4089096677507                                 683.5622039631484                                 1251.7584812333448                                1257.8712569831082                                1256.942471656881                                 1255.7005720456514                                1254.0161712730714
80                                                551.6623811496454                                 708.7732411615415                                 1267.757107986205                                 1273.4790538160437                                1272.3614087588821                                1271.0616635276292                                1269.3237274830053
85                                                578.2294238951476                                 734.4622877768812                                 1284.5710633100052                                1289.9099676059418                                1288.5960020548619                                1287.2347860602708                                1285.439495005567
90                                                603.204865498107                                  761.2825991006279                                 1302.1150050342194                                1307.0548888113872                                1305.5306932128856                                1304.103613353171                                 1302.2470782450973
95                                                626.5014079811126                                 788.6327904159256                                 1320.4674988861038                                1325.014263324711                                 1323.2718648610617                                1321.775235014532                                 1319.8536306119918
100                                               648.1190513441649                                 816.5128617227739                                 1339.6285448656581                                1343.788091145912                                 1341.8195169993905                                1340.2496510443534                                1338.2591521062504
101.75851672258547                                655.3229756808057                                 826.4443281464156                                 1346.5597410906435                                1350.5845041559128                                1348.5344881321353                                1346.9379886042748                                1344.92234997049
