% Model:              batchmodel_BILLETTA_r_0.0542379_COIL_kr_1.9397_COIL_kw_5.8583_FUNZ_freq_6066_FUNZ_I_eff_162.3068.mph
% Version:            COMSOL 5.6.0.401
% Date:               Jan 28 2022, 01:58
% Table:              Tabella delle sonde 1 - 
% Tempo (s)                                       Temperatura (degC), Punto: (0, 0.5)               Temperatura (degC), Punto: (0.5*BILLETTA_r, 0.5)  Temperatura (degC), Punto: (BILLETTA_r-10*FUNZ_depth_billetta, 0.5)Temperatura (degC), Punto: (BILLETTA_r-5*FUNZ_depth_billetta, 0.5)Temperatura (degC), Punto: (BILLETTA_r-2*FUNZ_depth_billetta, 0.5)Temperatura (degC), Punto: (BILLETTA_r-FUNZ_depth_billetta, 0.5)Temperatura (degC), Punto: (BILLETTA_r-0.01[mm], 0.5)
0                                                 20                                                20                                                20.00000002502412                                 20.06718484703248                                 20.765003174598917                                21.21024440332303                                 21.607109360832055
5                                                 20.09901760611973                                 36.60945757068026                                 1263.060888728553                                 1355.8461742986965                                1377.3747303427785                                1379.0480485413227                                1378.0414259650775
6.0733840507835986                                20.32153037763129                                 49.25187486788633                                 1314.963920130283                                 1382.1812071170443                                1396.716128608305                                 1397.3824893499414                                1395.9978293072245
