% Model:              batchmodel_BILLETTA_r_0.0542379_COIL_kr_2.4069_COIL_kw_3.2356_FUNZ_freq_6066_FUNZ_I_eff_61.5962.mph
% Version:            COMSOL 5.6.0.401
% Date:               Jan 28 2022, 02:18
% Table:              Tabella delle sonde 1 - 
% Tempo (s)                                       Temperatura (degC), Punto: (0, 0.5)               Temperatura (degC), Punto: (0.5*BILLETTA_r, 0.5)  Temperatura (degC), Punto: (BILLETTA_r-10*FUNZ_depth_billetta, 0.5)Temperatura (degC), Punto: (BILLETTA_r-5*FUNZ_depth_billetta, 0.5)Temperatura (degC), Punto: (BILLETTA_r-2*FUNZ_depth_billetta, 0.5)Temperatura (degC), Punto: (BILLETTA_r-FUNZ_depth_billetta, 0.5)Temperatura (degC), Punto: (BILLETTA_r-0.01[mm], 0.5)
0                                                 20                                                20                                                20.000000000021714                                20.000101839998536                                20.140812206628425                                20.33339955292911                                 20.533700972599718
5                                                 20.06625267636707                                 24.435290369667598                                299.22999664226734                                351.9338008169858                                 385.4888877961879                                 392.7756478773392                                 395.5294741573108
10                                                22.561016604061592                                54.12432210758192                                 537.5141246000178                                 614.1838376818026                                 654.2723168123568                                 662.3693161170096                                 665.3928661263142
15                                                34.14023311479366                                 105.25645128822089                                750.1812320415737                                 865.7331856085801                                 923.0854564687241                                 933.3067594601101                                 936.4956670020916
20                                                58.19389062706449                                 165.09814217085028                                925.8966004709724                                 1030.76406618676                                  1068.0826842132747                                1073.26266198878                                  1074.199201550809
25                                                91.52718641200812                                 226.03037999066277                                999.8616996736642                                 1066.5279524974376                                1085.2307463116967                                1087.2644141966603                                1087.061384205946
30                                                131.7637320321682                                 284.48054929217255                                1038.2834005634                                   1084.9024730950982                                1096.754228670069                                 1097.7293905723564                                1097.1409439707409
35                                                175.9424390221974                                 338.59820381394684                                1059.194086214893                                 1093.9793787439025                                1102.275459333463                                 1102.690879093307                                 1101.8993808303921
40                                                221.23122691914938                                387.97444942057973                                1070.2160593416233                                1097.7383920228676                                1104.001155292528                                 1104.1265344794783                                1103.236227948145
45                                                265.7794826248594                                 432.5612245675984                                 1079.3616373149534                                1102.4780050849108                                1107.414471037449                                 1107.3389481048407                                1106.3741000936875
50                                                308.05012712873463                                472.9391547759225                                 1087.966200194694                                 1107.51725414755                                  1111.3568382226658                                1111.110386863007                                 1110.0795972543137
55                                                347.89437886927453                                509.19700147254923                                1096.0666645626761                                1112.7705054860098                                1115.7047500354315                                1115.3119881590378                                1114.222295052245
60                                                385.0619056479526                                 542.2339789622688                                 1103.103332086269                                 1117.401742384132                                 1119.5824459591217                                1119.0684401956282                                1117.929452559953
65                                                419.66379666385876                                571.8353092850181                                 1109.266652249175                                 1121.6877119159712                                1123.2787100684413                                1122.6683034306275                                1121.488765869282
70                                                452.1934894945921                                 599.8531089794202                                 1115.3336992667746                                1126.0061600915465                                1127.0478950164002                                1126.3475696557266                                1125.1295587817094
75                                                482.4874201332726                                 625.671147200781                                  1121.046945945216                                 1130.2325682388773                                1130.80652896117                                  1130.02886745888                                  1128.7766724935968
80                                                510.5455885799005                                 649.2894239491002                                 1126.4063922844998                                1134.3669363579638                                1134.5546119027508                                1133.7121968400893                                1132.4301070049446
85                                                536.5142055618386                                 670.8923446312668                                 1131.4842544774192                                1138.4449809303883                                1138.3156372524768                                1137.4190183862447                                1136.1105645649395
90                                                561.1846821351834                                 691.478060890788                                  1136.6714251379267                                1142.660028526087                                 1142.216770409284                                 1141.2654942014774                                1139.9301025389204
95                                                584.0339811632138                                 710.3869024165001                                 1141.7095665134816                                1146.8843111857773                                1146.1739687942395                                1145.1748536949904                                1143.8146631246059
100                                               605.0621026459297                                 727.618869208403                                  1146.5986786040862                                1151.1178289094591                                1150.1872324073438                                1149.1470968667832                                1147.7642463219963
105                                               624.4608567318771                                 743.8931303068493                                 1151.424069538165                                 1155.401799135053                                 1154.2844774420628                                1153.2081074949938                                1151.8039813640498
110                                               642.70305979767                                   760.9824537452834                                 1156.396025791612                                 1159.8378237840366                                1158.5345179499118                                1157.4216896811508                                1155.995812381273
115                                               659.4373782365927                                 777.5695564982731                                 1161.3582907082                                   1164.350405958909                                 1162.8862205731907                                1161.7404327892818                                1160.2937108182641
120                                               674.6638120486455                                 793.6544385658184                                 1166.3108642879288                                1168.9395456596717                                1167.3395853119005                                1166.1643368193872                                1164.6976766750236
125                                               688.4813558452945                                 809.8045902661939                                 1171.42475693825                                  1173.7287333209229                                1172.003507431978                                 1170.7999133491094                                1169.3131520239199
130                                               701.0107749262684                                 826.7123032036021                                 1176.9085873183685                                1178.8686171358045                                1177.010830218882                                 1175.7770977598611                                1174.2687675377247
135                                               712.1440330706761                                 843.7582556950698                                 1182.5757258948124                                1184.2244277499767                                1182.2427125273166                                1180.9796503072835                                1179.4494506599322
140                                               721.8811302785177                                 860.9424477405979                                 1188.4261726675827                                1189.7961651634405                                1187.6991543572822                                1186.4075709913773                                1184.8552013905432
145                                               731.097448229254                                  877.9544957556087                                 1194.517544908475                                 1195.6251428930204                                1193.4168578268045                                1192.0969920130378                                1190.5220838144178
150                                               740.2583267999803                                 894.6294044443497                                 1200.8804711019598                                1201.7333225896086                                1199.4153332357837                                1198.0671207126961                                1196.469269062516
155                                               748.7685893139219                                 911.1782052628452                                 1207.4757769573753                                1208.0926149725783                                1205.6696266182503                                1204.2933906140847                                1202.6722369710265
160                                               756.628235771079                                  927.6008982110953                                 1214.3034624747206                                1214.70302004193                                  1212.1797379742047                                1210.7758017172032                                1209.130987539948
165                                               766.0740866732832                                 943.6368183998023                                 1221.2723540389416                                1221.4603487400173                                1218.837937847853                                 1217.406350663924                                 1215.7377893587918
170                                               777.3165401390969                                 959.2614473652635                                 1228.3738757464043                                1228.354800914488                                 1225.634093072587                                 1224.174878524048                                 1222.4825090770905
175                                               789.4233352847147                                 974.5834248842845                                 1235.6460268889077                                1235.4298004265243                                1232.6131030748888                                1231.1263988809255                                1229.4100469360014
180                                               802.3944721101371                                 989.6027509568659                                 1243.0888074664513                                1242.6853472761277                                1239.7749678547566                                1238.2609117345569                                1236.5204029355236
185                                               817.8844234202066                                 1004.4794199080558                                1250.5116293588326                                1249.9184738651716                                1246.9131902124427                                1245.3713938798446                                1243.6063538100261
190                                               835.5472592367336                                 1019.1799788861584                                1257.954342205206                                 1257.171618229862                                 1254.0709461805745                                1252.5011313306863                                1250.7112274036117
195                                               854.9971320117373                                 1033.6671148462997                                1265.461393976333                                 1264.492115418455                                 1261.2963939627543                                1259.6984049629164                                1257.8833512491915
200                                               876.2340417452175                                 1047.9408277884795                                1273.032784672214                                 1271.8799654309505                                1268.5895335589817                                1266.963214776535                                 1265.1227253467673
205                                               897.4283103521874                                 1062.1910066813962                                1280.4750928572244                                1279.1349582969979                                1275.7488645555713                                1274.0940720017702                                1272.2280673916694
210                                               919.3700798621174                                 1076.3356484359092                                1287.8718471077518                                1286.3435542051911                                1282.8614044159299                                1281.1779890736334                                1279.286300657458
215                                               942.2374315455255                                 1090.3562712933535                                1295.241872994964                                 1293.525239449967                                 1289.9467650324304                                1288.2345767512043                                1286.3170158081093
220                                               966.0044982141529                                 1104.2524260847545                                1302.5846649856571                                1300.67953218998                                  1297.004476265014                                 1295.2633685581236                                1293.3197499089542
225                                               987.3852585260589                                 1117.967052923405                                 1309.8360029999608                                1307.7452220250038                                1303.9748141786931                                1302.205105975292                                 1300.2356943571444
230                                               1008.3292858635544                                1131.5340050393197                                1317.0339883602028                                1314.7586246555725                                1310.8932125646152                                1309.0949466658808                                1307.099739883699
235                                               1028.8365802266399                                1144.9532824324992                                1324.1786210663831                                1321.7197400816854                                1317.7596714227807                                1315.9328906298883                                1313.9118864886173
240                                               1048.4861327727367                                1158.100402382127                                 1331.2219824554495                                1328.5821245560478                                1324.5284839883284                                1322.6734380782987                                1320.6268116158672
245                                               1065.1069767707                                   1170.343928367999                                 1337.9190334959635                                1335.1086068489444                                1330.9665146768707                                1329.0846177689077                                1327.0135629785136
250                                               1081.7278207686636                                1182.5874543538707                                1344.616084536478                                 1341.6350891418406                                1337.4045453654126                                1335.4957974595159                                1333.4003143411596
