% Model:              batchmodel_BILLETTA_r_0.0542379_COIL_kr_2.7711_COIL_kw_4.5299_FUNZ_freq_7167.5_FUNZ_I_eff_61.5962.mph
% Version:            COMSOL 5.6.0.401
% Date:               Jan 28 2022, 04:49
% Table:              Tabella delle sonde 1 - 
% Tempo (s)                                       Temperatura (degC), Punto: (0, 0.5)               Temperatura (degC), Punto: (0.5*BILLETTA_r, 0.5)  Temperatura (degC), Punto: (BILLETTA_r-10*FUNZ_depth_billetta, 0.5)Temperatura (degC), Punto: (BILLETTA_r-5*FUNZ_depth_billetta, 0.5)Temperatura (degC), Punto: (BILLETTA_r-2*FUNZ_depth_billetta, 0.5)Temperatura (degC), Punto: (BILLETTA_r-FUNZ_depth_billetta, 0.5)Temperatura (degC), Punto: (BILLETTA_r-0.01[mm], 0.5)
0                                                 20                                                20                                                20.000000000035868                                20.00017109987772                                 20.168752232664588                                20.394241036551023                                20.62145303671383
5                                                 20.099695775471275                                26.01448187315117                                 376.83403799095925                                441.04188881721143                                478.3605683419478                                 486.12448100174515                                489.0681505529508
10                                                23.32514652092152                                 60.943739780696376                                635.3059344184526                                 722.2874261477084                                 767.5376902288775                                 776.6218015346216                                 779.8376533919542
15                                                37.33652801100169                                 118.42671401005367                                873.4329703037196                                 992.4237104535106                                 1041.4513746066864                                1049.2434868815585                                1051.2936156518194
20                                                63.71284841131131                                 181.30887309491828                                995.1586308091513                                 1072.5254865343604                                1093.5932509684021                                1095.757629234031                                 1095.6182689617003
25                                                101.1239907931988                                 242.43749305905828                                1031.2312420061626                                1081.641899013829                                 1094.7597506184188                                1095.984822188639                                 1095.561744079805
30                                                144.3963598737784                                 298.1943704418759                                 1057.8047423122694                                1096.772138765411                                 1106.1063133619714                                1106.7003368938117                                1106.034862868395
35                                                188.93634111741062                                348.990312552364                                  1068.1243944390276                                1097.76334154313                                  1104.7975220877233                                1105.0982768056974                                1104.34444413036
40                                                232.7950980946656                                 395.70076716530195                                1078.4190127324555                                1102.5108254773468                                1107.9167935199976                                1107.9756802684915                                1107.1352441579374
45                                                275.45835478025674                                439.04902388231153                                1088.6765798213528                                1108.3224731719824                                1112.3606805083014                                1112.2077273367486                                1111.287107151917
50                                                316.18994978656974                                478.2238684957755                                 1097.238346414999                                 1113.7848570296119                                1116.8401481650235                                1116.5300536809114                                1115.5472341098816
55                                                354.88174310351997                                513.8444742121122                                 1104.478986140868                                 1118.8156149337542                                1121.1577190070816                                1120.7307146168441                                1119.6995754661634
60                                                391.16762919357643                                546.1677320922233                                 1110.6541170188552                                1123.2713759212288                                1125.075043482063                                 1124.5601887500452                                1123.4917375468362
65                                                425.2239593841605                                 575.9003659678599                                 1116.5286620401143                                1127.6922343764877                                1129.0427352900733                                1128.4531292554552                                1127.3517374525522
70                                                457.05329199070513                                603.6877912836432                                 1122.792924183323                                 1132.446284039831                                 1133.3241615282313                                1132.65634880768                                  1131.520157958833
75                                                486.6542470026451                                 629.1818570175735                                 1129.074539121722                                 1137.334967202507                                 1137.777256299622                                 1137.036711322633                                 1135.8672235236268
80                                                514.0268244199804                                 652.3825631696509                                 1135.3735068553124                                1142.3582838645148                                1142.4020196042452                                1141.594216800314                                 1140.3929341469357
85                                                539.8671629306527                                 674.1388511929573                                 1141.3762088547064                                1147.3198903322846                                1147.0304449280616                                1146.1646632209895                                1144.934588285369
90                                                564.050428132949                                  694.2984854766572                                 1147.138884461519                                 1152.2549957501178                                1151.6926598778664                                1150.7774959541653                                1149.5213622369538
95                                                586.4046308459122                                 712.651725134739                                  1152.7390167907338                                1157.2121091171948                                1156.4301724221787                                1155.4732830236771                                1154.1934533153462
100                                               607.1007112866209                                 729.7991399812819                                 1158.3046497062646                                1162.2661874388732                                1161.3026183418624                                1160.3093253416037                                1159.0072532044596
105                                               626.5303002348606                                 747.1166591488383                                 1164.129136750823                                 1167.5889601709837                                1166.4466255631123                                1165.416901557659                                 1164.0919574764157
110                                               644.419926735948                                  763.6434882543368                                 1170.007632755117                                 1173.060510747573                                 1171.7667884862126                                1170.7043414060731                                1169.357350452895
115                                               660.7695907898832                                 779.3796272977776                                 1175.9401377191466                                1178.6808391686423                                1177.2631071111628                                1176.1716448868456                                1174.8034321338978
120                                               675.871606168439                                  796.1507374273325                                 1182.1854198783508                                1184.6049224587487                                1183.0595095257472                                1181.9379052873187                                1180.5473578721571
125                                               689.6233875933793                                 813.3161168528858                                 1188.6526665034148                                1190.7783726186954                                1189.112504117205                                 1187.9613277308986                                1186.5480128943805
130                                               701.9911157282531                                 830.6645451169087                                 1195.3119393195716                                1197.1832595314586                                1195.4077529853025                                1194.2281336811534                                1192.7918428741073
135                                               713.1365460177859                                 848.1807687074507                                 1202.2296695784635                                1203.8636303737335                                1201.9830055993543                                1200.7753460834042                                1199.3158664361504
140                                               723.2584105199536                                 865.8460472239886                                 1209.4874744360072                                1210.8736013212556                                1208.8846407983365                                1207.6484511723083                                1206.1655645070068
145                                               732.1935620950533                                 883.6757654150798                                 1217.018351086142                                 1218.1687462287277                                1216.0745843279046                                1214.8101074683086                                1213.3035999648023
150                                               739.9420007430849                                 901.6699232807247                                 1224.822299528868                                 1225.7490650961495                                1223.5528361880592                                1222.260314971405                                 1220.7299728095359
155                                               748.6094034514881                                 918.950209817819                                  1232.7610278680368                                1233.4660061577638                                1231.166575283985                                 1229.8454262731789                                1228.290677631191
160                                               757.0993679916631                                 935.9739516471849                                 1240.9065431322838                                1241.3969186404502                                1238.99537383399                                  1237.645443844102                                 1236.065903307629
165                                               765.375738129265                                  952.7562301030647                                 1249.2612199090881                                1249.5443533022262                                1247.0418559040395                                1245.6630059386348                                1244.0582942404958
170                                               775.2136971918991                                 969.253555671046                                  1257.6829721974946                                1257.762305879528                                 1255.1589108843805                                1253.750810534456                                 1252.1204464929747
175                                               787.677705216801                                  985.439850565578                                  1266.086600419795                                 1265.9632272717                                   1263.2583262717171                                1261.820530350814                                 1260.1639716729283
180                                               801.6028324784173                                 1001.3436539393784                                1274.565345766082                                 1274.2429299528899                                1271.436640558486                                 1269.9688294909402                                1268.285600763007
185                                               817.1064560555527                                 1016.9845648357931                                1283.1035657675557                                1282.5854232704728                                1279.6778618926242                                1278.179746204265                                 1276.4694130495764
190                                               835.7086001395884                                 1032.6163893668481                                1291.498691649897                                 1290.783629496209                                 1287.7748970132607                                1286.2465770419476                                1284.5092365089704
195                                               856.5314473635123                                 1048.09255393572                                  1299.8677073329145                                1298.9571364808721                                1295.8473427412978                                1294.288693707571                                 1292.5241359455463
200                                               879.5749977273241                                 1063.4130585424077                                1308.2106128166092                                1307.1059442244605                                1303.895199076735                                 1302.3060962011364                                1300.5141113593045
205                                               902.848486099624                                  1078.6582199483587                                1316.4301552732372                                1315.1322671430235                                1311.8213833166064                                1310.2021003949885                                1308.3829335218952
210                                               925.9873264455083                                 1093.8427472566855                                1324.5085239514                                   1323.0181969169103                                1319.608115865934                                 1317.9589996886943                                1316.1129791425283
215                                               949.8297822141514                                 1108.9328210055069                                1332.4866696842914                                1330.8049087101754                                1327.2962759224497                                1325.6175054494806                                1323.7447680412433
220                                               974.3758534055527                                 1123.9284411948229                                1340.3645924719121                                1338.4924025228202                                1334.8858634861522                                1333.1776176773474                                1331.2783002180422
225                                               999.6255400197125                                 1138.829607824633                                 1348.1422923142609                                1346.0806783548446                                1342.3768785570433                                1340.6393363722946                                1338.7135756729235
230                                               1021.6093869017121                                1152.9802288480469                                1355.2603151333847                                1353.0190406385336                                1349.225008015022                                 1347.4604574050209                                1345.5103457950022
235                                               1041.506351871351                                 1166.7482024515648                                1362.0485296101115                                1359.6326569322182                                1355.7520649473186                                1353.961713612824                                 1351.9883656954057
240                                               1061.4033168409906                                1180.5161760550823                                1368.8367440868378                                1366.2462732259032                                1362.279121879615                                 1360.4629698206268                                1358.4663855958088
245                                               1081.3002818106297                                1194.2841496585997                                1375.6249585635646                                1372.8598895195878                                1368.8061788119112                                1366.96422602843                                  1364.9444054962119
250                                               1101.1972467802689                                1208.0521232621177                                1382.413173040291                                 1379.4735058132728                                1375.3332357442077                                1373.4654822362327                                1371.4224253966154
