% Model:              batchmodel_BILLETTA_r_0.0542379_COIL_kr_1.4848_COIL_kw_5.8583_FUNZ_freq_4639.7_FUNZ_I_eff_127.5152.mph
% Version:            COMSOL 5.6.0.401
% Date:               Jan 27 2022, 22:08
% Table:              Tabella delle sonde 1 - 
% Tempo (s)                                       Temperatura (degC), Punto: (0, 0.5)               Temperatura (degC), Punto: (0.5*BILLETTA_r, 0.5)  Temperatura (degC), Punto: (BILLETTA_r-10*FUNZ_depth_billetta, 0.5)Temperatura (degC), Punto: (BILLETTA_r-5*FUNZ_depth_billetta, 0.5)Temperatura (degC), Punto: (BILLETTA_r-2*FUNZ_depth_billetta, 0.5)Temperatura (degC), Punto: (BILLETTA_r-FUNZ_depth_billetta, 0.5)Temperatura (degC), Punto: (BILLETTA_r-0.01[mm], 0.5)
0                                                 20                                                20                                                20.00000000172514                                 20.01440807944988                                 20.39716778193673                                 20.678816685382515                                20.946308035094376
5                                                 20.16268622185794                                 33.088532183994744                                867.0029150569411                                 1087.7312049560273                                1154.0169411295533                                1162.429263054722                                 1163.9987661738724
10                                                25.414760512167902                                97.87458760938648                                 1180.437896904637                                 1252.830027603868                                 1268.853542590035                                 1269.791530172809                                 1268.5973817826057
15                                                49.446065293615106                                182.38764437697574                                1247.708442981549                                 1286.9098073042283                                1294.2007043336425                                1293.867924787612                                 1292.1914079545472
20                                                91.01321361234596                                 263.1331195358275                                 1277.4594617840758                                1303.5634490872849                                1307.4683129265036                                1306.6448394180552                                1304.7740569943799
25                                                143.2364097298639                                 335.46813234761964                                1301.7748413567074                                1322.0912059984348                                1324.4480936187556                                1323.3752000509867                                1321.3774105343323
30                                                197.4474256799739                                 401.7912314092871                                 1328.8108991996314                                1345.9209722145583                                1347.353590398759                                 1346.1011716947241                                1343.9814210723735
35                                                249.79711798401763                                460.56308722139295                                1355.754738863095                                 1370.6393791689188                                1371.3696127609041                                1369.9653559884096                                1367.727967119697
40                                                300.88565654419085                                516.1632510078764                                 1381.6553494528234                                1394.416584988643                                 1394.4653622752044                                1392.9149504738348                                1390.5638481176557
40.12315977894432                                 302.14406716732276                                517.5327917841186                                 1382.2933321477744                                1395.0022640711768                                1395.0342557561512                                1393.4802438705724                                1391.1263405287973
