% Model:              batchmodel_BILLETTA_r_0.0542379_COIL_kr_2.7711_COIL_kw_3.7744_FUNZ_freq_6066_FUNZ_I_eff_162.3068.mph
% Version:            COMSOL 5.6.0.401
% Date:               Jan 28 2022, 04:27
% Table:              Tabella delle sonde 1 - 
% Tempo (s)                                       Temperatura (degC), Punto: (0, 0.5)               Temperatura (degC), Punto: (0.5*BILLETTA_r, 0.5)  Temperatura (degC), Punto: (BILLETTA_r-10*FUNZ_depth_billetta, 0.5)Temperatura (degC), Punto: (BILLETTA_r-5*FUNZ_depth_billetta, 0.5)Temperatura (degC), Punto: (BILLETTA_r-2*FUNZ_depth_billetta, 0.5)Temperatura (degC), Punto: (BILLETTA_r-FUNZ_depth_billetta, 0.5)Temperatura (degC), Punto: (BILLETTA_r-0.01[mm], 0.5)
0                                                 20                                                20                                                20.000000025024065                                20.06718479191511                                 20.76500290273782                                 21.210244047760682                                21.60710894159388
5                                                 20.046139763906183                                34.36320185059316                                 1275.0284519664706                                1363.8968555108086                                1384.4806799330868                                1386.0186569063158                                1384.9506278118674
5.9555626459168085                                20.14751839139467                                 45.35907282340702                                 1307.6067564005762                                1377.7248696449178                                1393.4436688755868                                1394.2940335078815                                1392.9772054762407
