% Model:              batchmodel_BILLETTA_r_0.0542379_COIL_kr_1.6756_COIL_kw_3.2356_FUNZ_freq_2540.9_FUNZ_I_eff_174.7421.mph
% Version:            COMSOL 5.6.0.401
% Date:               Jan 27 2022, 22:27
% Table:              Tabella delle sonde 1 - 
% Tempo (s)                                       Temperatura (degC), Punto: (0, 0.5)               Temperatura (degC), Punto: (0.5*BILLETTA_r, 0.5)  Temperatura (degC), Punto: (BILLETTA_r-10*FUNZ_depth_billetta, 0.5)Temperatura (degC), Punto: (BILLETTA_r-5*FUNZ_depth_billetta, 0.5)Temperatura (degC), Punto: (BILLETTA_r-2*FUNZ_depth_billetta, 0.5)Temperatura (degC), Punto: (BILLETTA_r-FUNZ_depth_billetta, 0.5)Temperatura (degC), Punto: (BILLETTA_r-0.01[mm], 0.5)
0                                                 20                                                20                                                20.000000008600523                                20.036355626641296                                20.354842075183456                                20.55292324848324                                 20.753664445385198
5                                                 20.097867636588205                                34.29825954667308                                 916.4431230518229                                 1187.5169866193132                                1257.3150760824997                                1265.252330480008                                 1265.8265627986693
9.766721680001188                                 25.315575654153463                                106.10913529020132                                1274.7636651424605                                1366.919185661071                                 1385.6518493025424                                1386.132706570544                                 1383.7986568403808
