% Model:              batchmodel_BILLETTA_r_0.0542379_COIL_kr_1.4848_COIL_kw_5.3284_FUNZ_freq_8940.8_FUNZ_I_eff_61.5962.mph
% Version:            COMSOL 5.6.0.401
% Date:               Jan 27 2022, 21:58
% Table:              Tabella delle sonde 1 - 
% Tempo (s)                                       Temperatura (degC), Punto: (0, 0.5)               Temperatura (degC), Punto: (0.5*BILLETTA_r, 0.5)  Temperatura (degC), Punto: (BILLETTA_r-10*FUNZ_depth_billetta, 0.5)Temperatura (degC), Punto: (BILLETTA_r-5*FUNZ_depth_billetta, 0.5)Temperatura (degC), Punto: (BILLETTA_r-2*FUNZ_depth_billetta, 0.5)Temperatura (degC), Punto: (BILLETTA_r-FUNZ_depth_billetta, 0.5)Temperatura (degC), Punto: (BILLETTA_r-0.01[mm], 0.5)
0                                                 20.000000000000057                                20                                                20.000000000084242                                20.000326614262576                                20.21331524380281                                 20.492228656210386                                20.760392572641763
5                                                 20.05077028784723                                 25.363908646605182                                442.9349940371784                                 513.6442910764142                                 554.1327635870528                                 562.5455812863465                                 565.7112097017588
10                                                23.374628635813167                                65.30124859085817                                 768.1945351408641                                 885.7882477529248                                 942.957557863551                                  953.2095409901209                                 956.4767092976487
15                                                38.20652309791478                                 127.42450730195122                                965.1597404521914                                 1052.6467783785965                                1080.1335061517066                                1083.640791212446                                 1084.1118546667926
20                                                66.69725309175675                                 193.28401515009767                                1027.3541239659953                                1079.7286185627718                                1093.635112451861                                 1095.042894413636                                 1094.775931557383
25                                                104.99215929961497                                256.18169199593024                                1052.977525087409                                 1087.4483657303085                                1096.3434082441167                                1097.0361254199734                                1096.5284919486207
30                                                149.63457559030746                                314.0688779673876                                 1070.6184242321178                                1097.6673944553677                                1104.1786956855108                                1104.490442740249                                 1103.838334913738
35                                                197.14032080500664                                366.34057363492184                                1088.3800898537647                                1111.5071925406469                                1116.7437378655604                                1116.8327255241952                                1116.0817101450916
40                                                243.55030490061574                                413.5473903749664                                 1101.0790668841228                                1120.2714357403788                                1124.2834250450446                                1124.1753075854167                                1123.3443595198187
45                                                287.47617315404136                                456.04685687978053                                1108.3341047976774                                1122.8248394093152                                1125.4160925367123                                1125.1010908346861                                1124.199454225677
50                                                329.0313119136922                                 494.49259313887                                   1115.4902822095628                                1127.3688128631056                                1129.1663110480672                                1128.7283306037366                                1127.778890861729
55                                                368.03998188685466                                529.161350717866                                  1121.958039363743                                 1132.1473842539967                                1133.4267108568815                                1132.9048419964151                                1131.9196830933288
60                                                404.26819438625193                                560.5832087619634                                 1128.7275451261376                                1137.7012752808423                                1138.5903379036954                                1138.0011444387073                                1136.9840819148726
65                                                438.1089684288371                                 589.8367940565364                                 1135.4484474608548                                1143.277313955632                                 1143.7973906405086                                1143.1442131992671                                1142.096275606702
70                                                469.53849430946013                                616.8193894499163                                 1142.117053831953                                 1148.9181856548084                                1149.1037461279652                                1148.3916955648301                                1147.3143967978026
75                                                498.5390500628961                                 641.4545408332242                                 1148.7306158226365                                1154.6556618241816                                1154.5509946049774                                1153.7864993834482                                1152.6817145846549
80                                                525.7211955642697                                 664.3821369087616                                 1155.366773685083                                 1160.5380949005307                                1160.1797374190637                                1159.367946952325                                 1158.2370144415358
85                                                551.2247131520556                                 685.7486745932363                                 1162.0433024753552                                1166.57655475097                                  1165.9992698933074                                1165.1450407671691                                1163.9891759632478
90                                                574.7898932650448                                 705.281968928435                                  1168.7271769052754                                1172.750474039436                                 1171.9923217179858                                1171.101054578899                                 1169.9217012453
95                                                596.627126580903                                  723.5744984112268                                 1175.584306812259                                 1179.1881949898075                                1178.275145182542                                 1177.3501861398377                                1176.1478499964192
100                                               617.1155450281734                                 741.6939316171889                                 1182.913667974707                                 1186.1209951253677                                1185.0572312928703                                1184.0982241025754                                1182.8717204792865
105                                               635.9857297121041                                 758.8815614421773                                 1190.5028020958898                                1193.3845239126672                                1192.1897114599142                                1191.1989308459592                                1189.9482762983562
110                                               653.2696619640991                                 775.325764417407                                  1198.372518224438                                 1200.9930904621378                                1199.6850270998143                                1198.6645115098695                                1197.3896887348178
115                                               669.3918169052548                                 793.5267851352177                                 1206.7990063452594                                1209.1366137395398                                1207.708308036476                                 1206.6569599201057                                1205.3575022219566
120                                               684.1153526421549                                 812.089576786448                                  1215.6281623525615                                1217.7091257735824                                1216.1674177506793                                1215.0858893319155                                1213.7615807599245
125                                               697.4402691747994                                 831.0141393710982                                 1224.859986246343                                 1226.7106265642647                                1225.0623562424244                                1223.9512997452994                                1222.601924348723
130                                               709.4378008962508                                 850.2050701315856                                 1234.3240561755683                                1235.9423026105578                                1234.1849521797135                                1233.0434006065702                                1231.668020096859
135                                               720.0921318803902                                 869.6835510124828                                 1244.0582103148777                                1245.4482957870337                                1243.5814251239904                                1242.408770987368                                 1241.0066074541382
140                                               729.3907882239874                                 889.4662880558404                                 1254.0922913510217                                1255.2634204616688                                1253.2882280994036                                1252.084147454856                                 1250.6545494767934
145                                               738.3291076972667                                 909.10355574179                                   1264.2047807665294                                1265.1586580367389                                1263.0746193834639                                1261.8386716698765                                1260.3810901849056
150                                               747.5175647402555                                 928.3195221436023                                 1274.2598137354535                                1274.9935436324963                                1272.7990772455182                                1271.5307503768122                                1270.0446991032559
155                                               756.3229699130778                                 947.4002825532897                                 1284.3983104460922                                1284.91376865336                                  1282.608389265009                                 1281.307245341423                                 1279.7921728812266
160                                               765.5445759194223                                 966.3028070587746                                 1294.5503622760775                                1294.8491039123778                                1292.43263678343                                  1291.0984168359564                                1289.5539741853618
165                                               777.7215730278257                                 984.8903915444515                                 1304.4938726434593                                1304.5764344081863                                1302.0496913344691                                1300.6827048491418                                1299.1091860020597
170                                               791.2399059271355                                 1003.2499330052336                                1314.3700189039196                                1314.2375848623947                                1311.6007505413422                                1310.2009456614906                                1308.5982358855472
175                                               806.0995746173515                                 1021.3814314411214                                1324.1788010574583                                1323.8325552750034                                1321.085814404049                                 1319.6531392730026                                1318.0211238358243
180                                               825.2358377458075                                 1039.3861954627546                                1333.73818739936                                  1333.1806003572087                                1330.3259017156379                                1328.8609915314187                                1327.2002398138966
185                                               847.1376566335372                                 1057.2120725181503                                1343.1418858374004                                1342.3747657841068                                1339.413150021383                                 1337.9162862938597                                1336.2270155029428
190                                               871.7759939688248                                 1074.8580604027125                                1352.391697136687                                 1351.4168395948186                                1348.349329909067                                 1346.8207873513556                                1345.1032079263423
195                                               897.435968345365                                  1092.3425187050275                                1361.1834317754574                                1360.002535781939                                 1356.8325021800501                                1355.2735523176966                                1353.528864457508
200                                               924.1062914047667                                 1109.6655682787105                                1369.5150873993061                                1368.129851355935                                 1364.8606792928763                                1363.272600213034                                 1361.5020106317702
205                                               952.3056678806319                                 1126.821655850239                                 1377.4786730207911                                1375.8908245136354                                1372.5251895988936                                1370.90895788021                                  1369.1133739167512
207.81230921730938                                968.8386264711452                                 1136.3979352874503                                1381.7961514790377                                1380.0951003150517                                1376.676384423406                                 1375.0447470405302                                1373.235503386907
