% Model:              batchmodel_BILLETTA_r_0.0542379_COIL_kr_1.9397_COIL_kw_3.2356_FUNZ_freq_6066_FUNZ_I_eff_127.5152.mph
% Version:            COMSOL 5.6.0.401
% Date:               Jan 28 2022, 00:29
% Table:              Tabella delle sonde 1 - 
% Tempo (s)                                       Temperatura (degC), Punto: (0, 0.5)               Temperatura (degC), Punto: (0.5*BILLETTA_r, 0.5)  Temperatura (degC), Punto: (BILLETTA_r-10*FUNZ_depth_billetta, 0.5)Temperatura (degC), Punto: (BILLETTA_r-5*FUNZ_depth_billetta, 0.5)Temperatura (degC), Punto: (BILLETTA_r-2*FUNZ_depth_billetta, 0.5)Temperatura (degC), Punto: (BILLETTA_r-FUNZ_depth_billetta, 0.5)Temperatura (degC), Punto: (BILLETTA_r-0.01[mm], 0.5)
0                                                 20                                                20.000000000000057                                20.000000003027196                                20.01982055976606                                 20.521325184558464                                20.888515837412                                   21.221266654708018
5                                                 20.112706097120792                                33.56220985892509                                 1038.8981797345218                                1191.9534822147543                                1229.6524134839383                                1233.8035679485433                                1233.9418452730456
10                                                26.498469120524362                                103.9462425316272                                 1221.2918838809064                                1273.3502546589211                                1284.6593854481666                                1285.0909099143023                                1283.8957373544413
15                                                52.270245071360875                                188.83750753897192                                1277.8117725267489                                1307.661255616344                                 1313.033781010649                                 1312.585478207151                                 1311.0370709119065
20                                                95.51974858552865                                 269.4015753689695                                 1309.2377219060486                                1330.820996402559                                 1334.0166694842678                                1333.2305243980259                                1331.5226810053873
25                                                147.6155186195228                                 342.30360805254406                                1344.1672924713262                                1362.0064622915675                                1364.107542118531                                 1363.1104638154698                                1361.260465471858
28.607848983272692                                187.01181342441805                                391.3294604319077                                 1369.3387790899515                                1385.1404455202642                                1386.5919773893033                                1385.46029742556                                  1383.5107654177623
