% Model:              batchmodel_BILLETTA_r_0.0542379_COIL_kr_2.4069_COIL_kw_5.8583_FUNZ_freq_7167.5_FUNZ_I_eff_127.5152.mph
% Version:            COMSOL 5.6.0.401
% Date:               Jan 28 2022, 03:50
% Table:              Tabella delle sonde 1 - 
% Tempo (s)                                       Temperatura (degC), Punto: (0, 0.5)               Temperatura (degC), Punto: (0.5*BILLETTA_r, 0.5)  Temperatura (degC), Punto: (BILLETTA_r-10*FUNZ_depth_billetta, 0.5)Temperatura (degC), Punto: (BILLETTA_r-5*FUNZ_depth_billetta, 0.5)Temperatura (degC), Punto: (BILLETTA_r-2*FUNZ_depth_billetta, 0.5)Temperatura (degC), Punto: (BILLETTA_r-FUNZ_depth_billetta, 0.5)Temperatura (degC), Punto: (BILLETTA_r-0.01[mm], 0.5)
0                                                 20                                                20                                                20.00000000486324                                 20.02438216767638                                 20.61784719523257                                 21.05012924254663                                 21.42984686413365
5                                                 20.097658873925297                                33.579348285063986                                1097.752376810638                                 1216.7172402351598                                1246.327246664389                                 1249.4867563576581                                1249.381280251585
10                                                24.636859837623206                                103.0079126534884                                 1250.4649689915568                                1289.7340872799796                                1297.8884604019513                                1297.9558419006848                                1296.728334607455
15                                                46.025793278915785                                190.37956982668726                                1302.4123521776878                                1326.0994008086782                                1330.122241896242                                 1329.5629838962313                                1328.0619699584404
20                                                87.35030776389704                                 275.13536072478723                                1344.7468256062834                                1363.4956189175023                                1366.1389520253365                                1365.3251280561844                                1363.6611065720626
24.144893710502753                                132.11597509571658                                339.5779993968017                                 1378.3935306605554                                1394.2499266087748                                1395.9904448117745                                1394.9973365212863                                1393.2066737865644
