% Model:              batchmodel_BILLETTA_r_0.0542379_COIL_kr_1.4848_COIL_kw_3.7744_FUNZ_freq_6066_FUNZ_I_eff_61.5962.mph
% Version:            COMSOL 5.6.0.401
% Date:               Jan 27 2022, 21:02
% Table:              Tabella delle sonde 1 - 
% Tempo (s)                                       Temperatura (degC), Punto: (0, 0.5)               Temperatura (degC), Punto: (0.5*BILLETTA_r, 0.5)  Temperatura (degC), Punto: (BILLETTA_r-10*FUNZ_depth_billetta, 0.5)Temperatura (degC), Punto: (BILLETTA_r-5*FUNZ_depth_billetta, 0.5)Temperatura (degC), Punto: (BILLETTA_r-2*FUNZ_depth_billetta, 0.5)Temperatura (degC), Punto: (BILLETTA_r-FUNZ_depth_billetta, 0.5)Temperatura (degC), Punto: (BILLETTA_r-0.01[mm], 0.5)
0                                                 20                                                20.000000000000057                                20.00000000002234                                 20.00010527165051                                 20.141427601907253                                20.332449237684557                                20.53082701378031
5                                                 20.069450289159477                                24.67679721209612                                 314.7544479058108                                 370.8812540413835                                 405.2421481050444                                 412.97293589918945                                415.99183543314314
10                                                22.466142018819824                                54.7199780734893                                  569.2878795369428                                 653.6316889867874                                 699.1715461452366                                 708.1603436129267                                 711.3662223304756
15                                                34.021512532837846                                107.35988536141662                                780.8179496824515                                 900.0989001405522                                 956.3675874723859                                 966.204155337679                                  969.1798546656365
20                                                58.72845088529675                                 168.77352675951352                                939.5293100112386                                 1038.839738011126                                 1072.5493558737599                                1077.034772458232                                 1077.7080820345632
25                                                92.87381033369758                                 230.3569868432337                                 1007.2218370682007                                1071.530738360129                                 1089.5593511452967                                1091.4517143901066                                1091.1865835988974
30                                                133.87599055883146                                288.75948092649855                                1039.5868139843046                                1084.2209512725867                                1095.6648567698094                                1096.571750243712                                 1095.961996941488
35                                                178.70212260583838                                342.625688046896                                  1055.8030532205844                                1090.3432183695581                                1098.5894280649122                                1099.0168422948882                                1098.2398038654455
40                                                224.3105696153333                                 391.5962877629006                                 1069.6779120203323                                1097.5466783026714                                1103.9083007311374                                1104.0493865532458                                1103.1647942274435
45                                                268.92029080431075                                435.7142146601275                                 1082.1197904584546                                1105.2875187013365                                1110.3633449926065                                1110.3017707577628                                1109.3350449875888
50                                                311.05243205215663                                475.7406968157761                                 1091.9111436328449                                1111.2620123806746                                1115.1670474107254                                1114.921035147709                                 1113.8818059947057
55                                                350.6466944672651                                 511.7357263635869                                 1099.0409284012653                                1115.3888128907029                                1118.2160326260978                                1117.8009485391112                                1116.6981187580468
60                                                387.6041504386437                                 544.545715023734                                  1104.3200105977771                                1118.2197082414432                                1120.212450925535                                 1119.668428763122                                 1118.5179242581826
65                                                421.99071382638476                                573.9811044487888                                 1107.673353829091                                 1119.7438613666677                                1121.0931790832724                                1120.4514240567923                                1119.2662265904032
70                                                454.3606338916629                                 601.8758435475469                                 1112.8930517644217                                1123.229415270895                                 1124.0194561734666                                1123.2884084608613                                1122.0668470179894
75                                                484.52647013828266                                627.6097126507319                                 1118.6966635080025                                1127.5711229302378                                1127.9221888077059                                1127.1179874499712                                1125.8633464103314
80                                                512.4882225662436                                 651.182711758344                                  1125.084189059834                                 1132.7689843446947                                1132.8013769859908                                1131.940161024123                                 1130.6557247674286
85                                                538.3666946827914                                 672.7390940749868                                 1131.7908755883645                                1138.5216159730685                                1138.3284779296919                                1137.4229087636522                                1136.111501256015
90                                                562.8673832771311                                 693.1213034584721                                 1137.2705571183528                                1143.068927189825                                 1142.5847900983908                                1141.6272195805136                                1140.2889759561826
95                                                585.5259713803044                                 711.774892341409                                  1142.5408302003648                                1147.5693073127395                                1146.8330912923757                                1145.8292378384426                                1144.4660628644697
100                                               606.3424589923112                                 728.6998607237979                                 1147.6016948344009                                1152.022756341812                                 1151.0733815116464                                1150.0289635374397                                1148.642761980877
105                                               625.7536627825577                                 745.4902759662085                                 1152.6828517570398                                1156.5454461178738                                1155.3977385613307                                1154.314778255865                                 1152.9059900387742
110                                               643.8245955235045                                 762.3833880315129                                 1157.8184880375175                                1161.1546668543788                                1159.8198666652206                                1158.6998360966759                                1157.2686831237224
115                                               660.3763314790499                                 778.7262463895212                                 1162.9145152944757                                1165.8028330684656                                1164.302049567928                                 1163.1479348265948                                1161.6952390218248
120                                               675.4420773977321                                 794.6966374532414                                 1168.0115278486928                                1170.5220481889537                                1168.8745098096783                                1167.688965567127                                 1166.2153662887795
125                                               689.276863333734                                  811.6599727892548                                 1173.4212928042425                                1175.5588687006225                                1173.7693585248207                                1172.5524941346393                                1171.0572286233173
130                                               701.7268019375738                                 828.792351200479                                  1178.9556871830118                                1180.764520279356                                 1178.8465378391388                                1177.5999985218896                                1176.0831500681552
135                                               712.7918932092513                                 846.093772686915                                  1184.6147109849985                                1186.1390029251538                                1184.106047752632                                 1182.8314787288782                                1181.2931306232922
140                                               722.9409272113314                                 863.2687184622358                                 1190.5174015032576                                1191.7739845771484                                1189.630011211219                                 1188.327531724252                                 1186.7671413521662
145                                               732.2869027124474                                 880.2459556620323                                 1196.692451896221                                 1197.6915611905915                                1195.4382234121676                                1194.1075848784685                                1192.52445875489
150                                               740.613031416263                                  897.1621446367236                                 1203.0848142991354                                1203.8493416442975                                1201.4927072417177                                1200.1343667540177                                1198.5281008389202
155                                               748.157950796077                                  913.9675422023073                                 1209.6895344472991                                1210.2400992060698                                1207.7855594211055                                1206.3999334788787                                1204.7701920514405
160                                               757.3605465231498                                 930.1537707891179                                 1216.4559795334376                                1216.7899763490154                                1214.23600808721                                  1212.8230983250123                                1211.1702438897446
165                                               766.776868377456                                  946.0218169961685                                 1223.4141268763178                                1223.5427006629375                                1220.8918744851594                                1219.4519281596758                                1217.7759098345014
170                                               776.4069163589951                                 961.5716808234587                                 1230.5639764759399                                1230.498272147835                                 1227.7531586149548                                1226.2864229828688                                1224.5871898857126
175                                               788.1594818995712                                 976.894995577631                                  1237.800569240554                                 1237.5424773953914                                1234.7029150113353                                1233.2090889512865                                1231.4862221654994
180                                               802.6874789366146                                 992.0231049990447                                 1245.0880032624282                                1244.6362490015463                                1241.701141753234                                 1240.1797365677544                                1238.4326912881806
185                                               818.9979645211537                                 1006.908341938631                                 1252.480877691762                                 1251.83900016178                                  1248.808673237333                                 1247.2594854922377                                1245.487908363311
190                                               837.0786127806465                                 1021.5623273535476                                1259.9672952385786                                1259.1384528365256                                1256.0131663261031                                1254.4359917964662                                1252.6395372452362
195                                               856.7492749267677                                 1036.1549073414149                                1267.3733710629867                                1266.355157340307                                 1263.1342198948173                                1261.5288427986216                                1259.707278998973
200                                               878.1147315490747                                 1050.587293703832                                 1274.8002424316205                                1273.5934876409692                                1270.2767613003634                                1268.642972577586                                 1266.7960015444214
205                                               901.1749826475676                                 1064.8594864407996                                1282.2479093444822                                1280.8534437385133                                1277.4407905427424                                1275.7783811333588                                1273.9057048815812
210                                               923.9006172086202                                 1078.9767544041165                                1289.6398688702207                                1288.0587335929722                                1284.5505039799127                                1282.8595205952888                                1280.9611419818912
215                                               945.3718893426652                                 1092.9414854810834                                1296.9414492463502                                1295.1747810195834                                1291.5715467730956                                1289.8521520423146                                1287.9282102684174
220                                               966.7731940356986                                 1106.7506046900367                                1304.1972987416048                                1302.2461112076762                                1298.548159075201                                 1296.8003663552881                                1294.8508250460159
225                                               988.1045312877208                                 1120.4041120309766                                1311.407417355983                                 1309.2727241572507                                1305.4803408862285                                1303.7041635342093                                1301.7289863146848
230                                               1009.3659010987316                                1133.902007503903                                 1318.5718050894857                                1316.2546198683067                                1312.368092206179                                 1310.5635435790782                                1308.562694074426
235                                               1028.2454969145697                                1146.714562562428                                 1325.5015853046784                                1323.008622293219                                 1319.0309009900757                                1317.1987350504942                                1315.1728135815947
240                                               1045.3223298192984                                1159.0835997441973                                1332.2753540309982                                1329.6112419727992                                1325.544449376042                                 1323.6852416785987                                1321.6347326133186
245                                               1062.3991627240266                                1171.452636925966                                 1339.0491227573184                                1336.2138616523794                                1332.057997762009                                 1330.1717483067036                                1328.0966516450417
250                                               1079.4759956287553                                1183.8216741077354                                1345.8228914836382                                1342.8164813319595                                1338.5715461479758                                1336.6582549348082                                1334.5585706767652
