% Model:              batchmodel_BILLETTA_r_0.0542379_COIL_kr_2.4069_COIL_kw_3.2356_FUNZ_freq_6066_FUNZ_I_eff_127.5152.mph
% Version:            COMSOL 5.6.0.401
% Date:               Jan 28 2022, 02:19
% Table:              Tabella delle sonde 1 - 
% Tempo (s)                                       Temperatura (degC), Punto: (0, 0.5)               Temperatura (degC), Punto: (0.5*BILLETTA_r, 0.5)  Temperatura (degC), Punto: (BILLETTA_r-10*FUNZ_depth_billetta, 0.5)Temperatura (degC), Punto: (BILLETTA_r-5*FUNZ_depth_billetta, 0.5)Temperatura (degC), Punto: (BILLETTA_r-2*FUNZ_depth_billetta, 0.5)Temperatura (degC), Punto: (BILLETTA_r-FUNZ_depth_billetta, 0.5)Temperatura (degC), Punto: (BILLETTA_r-0.01[mm], 0.5)
0                                                 20                                                20                                                20.000000003027196                                20.019820544959032                                20.52132508372165                                 20.888515702903874                                21.22126648824019
5                                                 20.093773493525873                                33.30692691759441                                 1050.0707071185889                                1199.2391359749763                                1235.5586444158625                                1239.537342068585                                 1239.6143183632207
10                                                26.484164385000895                                104.43009201700767                                1220.2863069814985                                1271.1819301605342                                1282.2005164561087                                1282.5969466330894                                1281.3959471202406
15                                                50.64697116673585                                 189.97464271278528                                1294.4774327872674                                1324.263580698299                                 1329.4621781528344                                1328.9496738987332                                1327.3404981351537
20                                                94.70489126092872                                 270.7483403760931                                 1316.4495263033705                                1338.0079254455204                                1341.1607515535693                                1340.3532246184132                                1338.6209937378371
25                                                147.42921305941837                                344.4195683228613                                 1349.0830902413368                                1366.8094615105483                                1368.8590006552022                                1367.8444206105028                                1365.9769616634462
27.53050560906813                                 175.3157667274279                                 379.5476658875647                                 1366.3390245913124                                1382.5567037032256                                1384.132219995251                                 1383.022077431874                                 1381.0856437571042
