% Model:              batchmodel_BILLETTA_r_0.0445341_COIL_kr_1.9397_COIL_kw_3.2356_FUNZ_freq_6066_FUNZ_I_eff_162.3068.mph
% Version:            COMSOL 5.6.0.401
% Date:               Jan 27 2022, 15:46
% Table:              Tabella delle sonde 1 - 
% Tempo (s)                                       Temperatura (degC), Punto: (0, 0.5)               Temperatura (degC), Punto: (0.5*BILLETTA_r, 0.5)  Temperatura (degC), Punto: (BILLETTA_r-10*FUNZ_depth_billetta, 0.5)Temperatura (degC), Punto: (BILLETTA_r-5*FUNZ_depth_billetta, 0.5)Temperatura (degC), Punto: (BILLETTA_r-2*FUNZ_depth_billetta, 0.5)Temperatura (degC), Punto: (BILLETTA_r-FUNZ_depth_billetta, 0.5)Temperatura (degC), Punto: (BILLETTA_r-0.01[mm], 0.5)
0                                                 20                                                20                                                20.00000002609073                                 20.067576688616384                                20.765000154722088                                21.208575601641883                                21.60355085602214
5                                                 21.15708569769339                                 66.56155579600119                                 1270.638536546971                                 1356.9503695651151                                1376.6513004342123                                1378.0616867491922                                1376.9688686198306
6.362216043320114                                 23.81164661597421                                 100.7219710571228                                 1329.4842922834691                                1387.6681779997061                                1399.719149891961                                 1400.0260547873677                                1398.5147127918985
