% Model:              batchmodel_BILLETTA_r_0.0445341_COIL_kr_2.4069_COIL_kw_5.3284_FUNZ_freq_2540.9_FUNZ_I_eff_85.0125.mph
% Version:            COMSOL 5.6.0.401
% Date:               Jan 27 2022, 18:14
% Table:              Tabella delle sonde 1 - 
% Tempo (s)                                       Temperatura (degC), Punto: (0, 0.5)               Temperatura (degC), Punto: (0.5*BILLETTA_r, 0.5)  Temperatura (degC), Punto: (BILLETTA_r-10*FUNZ_depth_billetta, 0.5)Temperatura (degC), Punto: (BILLETTA_r-5*FUNZ_depth_billetta, 0.5)Temperatura (degC), Punto: (BILLETTA_r-2*FUNZ_depth_billetta, 0.5)Temperatura (degC), Punto: (BILLETTA_r-FUNZ_depth_billetta, 0.5)Temperatura (degC), Punto: (BILLETTA_r-0.01[mm], 0.5)
0                                                 20                                                20                                                20.000000000035243                                20.000161105169298                                20.10679498238028                                 20.216551669874946                                20.337418463575318
5                                                 20.655347090416285                                34.089407954953344                                281.3165565524474                                 361.8950479173835                                 411.5159427474083                                 421.92881278712844                                425.86876857886557
10                                                32.27567068399259                                 94.67022276947307                                 532.064811214879                                  651.4668092841368                                 714.1005357849292                                 726.1754198894535                                 730.3420293306793
15                                                67.792036838927                                   177.45592256668834                                735.4582845064798                                 898.2300711062265                                 975.4262931649829                                 988.1126604745685                                 991.6024399013237
20                                                123.05088254910612                                262.60423366432906                                913.4970422196064                                 1057.9449577345235                                1100.8776120293364                                1105.78814328809                                  1105.9360432852714
25                                                185.86561968220138                                342.27944400822446                                1013.5116640937684                                1108.7857844526816                                1130.7992684029628                                1132.4848445480138                                1131.4542103482713
30                                                248.48511981402407                                411.1491666814903                                 1055.1290868186984                                1120.2180793909947                                1134.1951980350127                                1134.7682742065704                                1133.3645439401575
35                                                309.0746218714045                                 474.60911238039614                                1096.2371446458073                                1144.6528502147594                                1153.7965354837265                                1153.6164961366503                                1151.895774159294
40                                                365.09999348657425                                529.1277552305314                                 1106.9435667009006                                1140.820498362341                                 1146.3786915089217                                1145.7430280209783                                1143.9026039456608
45                                                415.9182633631484                                 576.5807326419821                                 1116.6597331737198                                1142.5859164315498                                1146.0471343430454                                1145.1241454475307                                1143.1918535212762
50                                                462.58316127694184                                619.0826853187057                                 1125.839203183727                                 1146.1092366467124                                1148.0594492178843                                1146.921361833477                                 1144.9121716245659
55                                                506.069873249127                                  657.9240759612477                                 1134.4160746185944                                1150.3493384256321                                1151.121701343864                                 1149.810493260345                                 1147.734203177497
60                                                546.3257598682845                                 693.2292960389857                                 1142.4348802707837                                1155.1244369988212                                1154.9970425577908                                1153.5480622123482                                1151.413168299695
65                                                582.961885074543                                  724.9383944824929                                 1149.9361993530815                                1160.1161215215893                                1159.2807839357115                                1157.7191559986386                                1155.5322817913734
70                                                616.2440866449666                                 755.9010678718417                                 1157.2593985760827                                1165.451812221986                                 1164.041906084953                                 1162.3844304057316                                1160.1492281439905
75                                                646.2641695524677                                 788.4134496573216                                 1164.6931570356837                                1171.1333719776808                                1169.2072451775057                                1167.4606937741232                                1165.1778037793324
80                                                672.9766186666066                                 821.337161272042                                  1172.094353218004                                 1177.159877209946                                 1174.813074424609                                 1172.9891909200114                                1170.6607467646554
85                                                696.381433987383                                  854.6722027160043                                 1179.4629871230422                                1183.5313279187817                                1180.8593938262643                                1178.9699218433962                                1176.5980570999595
90                                                717.6556752405049                                 886.2317976097987                                 1187.3666911999676                                1190.4835544076473                                1187.4968848418612                                1185.541479992697                                 1183.1236114583703
95                                                736.1691961263946                                 917.186650390417                                  1195.5015798603486                                1197.8903034458804                                1194.644879207951                                 1192.629668496881                                 1190.165738124063
100                                               751.9000326675142                                 947.5775663850878                                 1203.8570610619222                                1205.747174431392                                 1202.3005652029888                                1200.2319011971304                                1197.7219389534193
105                                               772.3538048793858                                 976.4040121598761                                 1212.8750706440378                                1214.2776626111581                                1210.628409394044                                 1208.5050603726977                                1205.9477351373862
110                                               797.3907483876598                                 1003.6846189443303                                1222.5473791884779                                1223.4776062139586                                1219.625349200438                                 1217.4462246721741                                1214.8402306697822
115                                               824.8629537037492                                 1029.7057128849842                                1232.7475163729082                                1233.2830468245475                                1229.2443186503738                                1227.010498545891                                 1224.3549195083333
120                                               855.1572168028366                                 1054.5748173512275                                1243.4919794728444                                1243.6524143151537                                1239.4258959752165                                1237.1352177906579                                1234.4272043448495
125                                               888.6474851861639                                 1078.3958840330674                                1254.7967177621977                                1254.545519422179                                 1250.1126332610115                                1247.7597997641924                                1244.9946336453581
130                                               925.0149224607668                                 1101.0802812862898                                1266.6481325166887                                1265.9966284525217                                1261.3535119439453                                1258.935898645429                                 1256.1104550495975
135                                               962.9789149957245                                 1122.7935757598602                                1278.9340103833383                                1277.883595322477                                 1273.0245156049177                                1270.53952125267                                  1267.651008160784
140                                               997.125297092358                                  1144.2357485019438                                1291.1799368533739                                1289.6900120221198                                1284.6013288484464                                1282.0464504332876                                1279.0934827710726
145                                               1030.7456724050362                                1164.9812380679223                                1303.6743376266481                                1301.7298346782504                                1296.4027151863747                                1293.7753899712634                                1290.7557272963527
150                                               1063.8400409337596                                1185.030044457796                                 1316.417212703161                                 1314.0030632908688                                1308.4286746187026                                1305.7263398665968                                1302.637741736623
155                                               1090.2429174132221                                1203.7770593602913                                1328.4692167611247                                1325.5964036760524                                1319.7845558688769                                1317.0101229534134                                1313.8550003526298
160                                               1116.4033455223307                                1222.4885404550923                                1340.4902626431826                                1337.1594956454646                                1331.110732121715                                 1328.2643611681392                                1325.0428490134095
165                                               1142.5637736314388                                1241.2000215498938                                1352.511308525241                                 1348.7225876148764                                1342.4369083745532                                1339.518599382865                                 1336.2306976741897
170                                               1165.6292976696564                                1258.2632357186412                                1362.6522450579146                                1358.4640602200543                                1351.9823369577725                                1349.003862510208                                 1345.659404744999
175                                               1187.4327293241458                                1274.654291692475                                 1372.026478766823                                 1367.4626820379422                                1360.801582105354                                 1357.767743024826                                 1354.3707392731558
180                                               1209.2361609786353                                1291.0453476663088                                1381.4007124757318                                1376.461303855829                                 1369.6208272529361                                1366.5316235394444                                1363.0820738013126
182.7147217954825                                 1221.0742112043868                                1299.9447790469367                                1386.4903997888355                                1381.3470548114938                                1374.4091866573049                                1371.289923028652                                 1367.8118437435783
