% Model:              batchmodel_BILLETTA_r_0.0445341_COIL_kr_1.6756_COIL_kw_3.7744_FUNZ_freq_2540.9_FUNZ_I_eff_162.3068.mph
% Version:            COMSOL 5.6.0.401
% Date:               Jan 27 2022, 14:17
% Table:              Tabella delle sonde 1 - 
% Tempo (s)                                       Temperatura (degC), Punto: (0, 0.5)               Temperatura (degC), Punto: (0.5*BILLETTA_r, 0.5)  Temperatura (degC), Punto: (BILLETTA_r-10*FUNZ_depth_billetta, 0.5)Temperatura (degC), Punto: (BILLETTA_r-5*FUNZ_depth_billetta, 0.5)Temperatura (degC), Punto: (BILLETTA_r-2*FUNZ_depth_billetta, 0.5)Temperatura (degC), Punto: (BILLETTA_r-FUNZ_depth_billetta, 0.5)Temperatura (degC), Punto: (BILLETTA_r-0.01[mm], 0.5)
0                                                 20                                                20                                                20.000000005197762                                20.026839731819564                                20.315644495012634                                20.50044938364806                                 20.687559056697125
5                                                 21.056016233160847                                56.65150423479122                                 815.4468184830863                                 1106.0589386905003                                1190.0597187268063                                1200.2532061061133                                1201.7977159889292
10                                                47.08565418701636                                 180.43669081120566                                1220.8874726819681                                1318.413676211078                                 1339.1191586808345                                1340.0048121664113                                1337.9751743357629
15                                                110.5120526035729                                 309.81474604581683                                1328.2313550149315                                1375.0913636596588                                1382.1729734317892                                1381.0350121611696                                1378.1807723316624
20                                                196.02744632344195                                428.0883851769628                                 1369.4880836672442                                1397.2342622965848                                1399.4838346955817                                1397.64193561421                                  1394.491659187352
20.484506837910754                                204.7770794711725                                 438.82660514403074                                1372.141793348962                                 1398.7479572602379                                1400.717709346699                                 1398.83486860436                                  1395.666477645194
