% Model:              batchmodel_BILLETTA_r_0.0445341_COIL_kr_1.6756_COIL_kw_3.7744_FUNZ_freq_7167.5_FUNZ_I_eff_127.5152.mph
% Version:            COMSOL 5.6.0.401
% Date:               Jan 27 2022, 14:28
% Table:              Tabella delle sonde 1 - 
% Tempo (s)                                       Temperatura (degC), Punto: (0, 0.5)               Temperatura (degC), Punto: (0.5*BILLETTA_r, 0.5)  Temperatura (degC), Punto: (BILLETTA_r-10*FUNZ_depth_billetta, 0.5)Temperatura (degC), Punto: (BILLETTA_r-5*FUNZ_depth_billetta, 0.5)Temperatura (degC), Punto: (BILLETTA_r-2*FUNZ_depth_billetta, 0.5)Temperatura (degC), Punto: (BILLETTA_r-FUNZ_depth_billetta, 0.5)Temperatura (degC), Punto: (BILLETTA_r-0.01[mm], 0.5)
0                                                 20                                                20.000000000000057                                20.000000004931906                                20.02461621530051                                 20.617950114529492                                21.049041866538687                                21.42729273386226
5                                                 21.1938672552061                                  59.44678095437382                                 1110.9314915854516                                1225.5397837394025                                1253.290325352502                                 1256.154080249375                                 1255.934453772355
10                                                44.57581526529896                                 180.5629796159946                                 1260.297296693349                                 1297.064045722061                                 1304.5088005321672                                1304.4616484811231                                1303.1818928264438
15                                                107.69961165960069                                301.979347114584                                  1305.7166452601723                                1327.7003583287224                                1331.2508211108466                                1330.6215873328379                                1329.0948148082107
20                                                190.61323128380133                                408.07235321997996                                1352.1541045887143                                1369.492454194089                                 1371.705658444078                                 1370.8192809504671                                1369.1185880632502
21.336801567129434                                213.77474838423484                                433.93758377254653                                1364.665016186957                                 1381.1009160296062                                1383.0183002549597                                1382.070697264805                                 1380.324383786368
