% Model:              batchmodel_BILLETTA_r_0.0445341_COIL_kr_1.4848_COIL_kw_5.3284_FUNZ_freq_6066_FUNZ_I_eff_85.0125.mph
% Version:            COMSOL 5.6.0.401
% Date:               Jan 27 2022, 13:21
% Table:              Tabella delle sonde 1 - 
% Tempo (s)                                       Temperatura (degC), Punto: (0, 0.5)               Temperatura (degC), Punto: (0.5*BILLETTA_r, 0.5)  Temperatura (degC), Punto: (BILLETTA_r-10*FUNZ_depth_billetta, 0.5)Temperatura (degC), Punto: (BILLETTA_r-5*FUNZ_depth_billetta, 0.5)Temperatura (degC), Punto: (BILLETTA_r-2*FUNZ_depth_billetta, 0.5)Temperatura (degC), Punto: (BILLETTA_r-FUNZ_depth_billetta, 0.5)Temperatura (degC), Punto: (BILLETTA_r-0.01[mm], 0.5)
0                                                 20                                                20                                                20.000000000162743                                20.00095217040456                                 20.259680405981214                                20.51783436827941                                 20.765921804574987
5                                                 20.747335516554983                                42.39457236761905                                 586.5100481472859                                 711.2687775926128                                 778.4950475816862                                 791.4851914082407                                 796.1081761999138
10                                                39.0283485009291                                  132.4979541018484                                 966.4096872654533                                 1096.13957874591                                  1131.2965886424422                                1135.2536536711855                                1135.5351693635325
15                                                85.92229881298528                                 234.0480584048007                                 1086.8149441205705                                1140.6811906755988                                1153.0732495104749                                1153.9027305308646                                1153.1283885060611
20                                                152.66324903394843                                327.69526927717914                                1115.6620361012547                                1147.964838443922                                 1154.5648464224628                                1154.58109957825                                  1153.5367358945855
25                                                227.0604722409077                                 409.12107823426675                                1135.5933446084118                                1158.022256260257                                 1162.0734069645878                                1161.7240713374845                                1160.5437217206331
30                                                297.65200672764024                                478.80440261059994                                1153.5049073240862                                1169.7381912058468                                1171.9529722875936                                1171.3186441894695                                1170.0212855471923
35                                                361.4473216494432                                 538.6106668077991                                 1166.230482558853                                 1179.3366862090948                                1180.6392540203205                                1179.8586642241912                                1178.4933168049406
40                                                419.10568915656904                                590.2354687188827                                 1178.6325644739209                                1189.4305812245289                                1190.0767232858811                                1189.184825665288                                 1187.761014697362
45                                                470.6206114228006                                 635.4753578586931                                 1191.6400180657793                                1200.709463592647                                 1200.83868445108                                  1199.8520450023443                                1198.372215538896
50                                                517.5488830028551                                 676.8177515930312                                 1206.0944313394298                                1213.8109565425475                                1213.5135840324483                                1212.4424137998526                                1210.9071942136006
55                                                559.6307550308779                                 713.8009046468383                                 1221.7877738369343                                1228.5850849093                                   1227.968043780747                                 1226.8249038557606                                1225.2357051611925
60                                                597.7981761542925                                 750.7892616912156                                 1238.7410543683886                                1244.7820982549001                                1243.879111468491                                 1242.6645310115514                                1241.0171770373354
65                                                631.6788380654891                                 786.0392513248358                                 1256.9458800308635                                1262.5017704919505                                1261.3758047165402                                1260.0951195776938                                1258.3876662021953
70                                                661.7241477359364                                 823.1781592201459                                 1276.5856831191845                                1281.704734230383                                 1280.3545271465764                                1279.0033516464878                                1277.2299944328875
75                                                688.0495500173574                                 863.1336437499236                                 1297.7073754344892                                1302.3809214765765                                1300.78878455428                                  1299.3602467859096                                1297.5141940429985
80                                                710.775440858589                                  903.9799183051426                                 1319.7895724044606                                1324.0214848985866                                1322.1772935714134                                1320.6668538134                                   1318.7433527037383
85                                                730.4181746600143                                 943.9895891297452                                 1341.883720037447                                 1345.5691774945171                                1343.4394954628965                                1341.841497217859                                 1339.8376116356217
89.71556602563273                                 745.8741055250055                                 981.7740457933545                                 1363.180794636101                                 1366.3062684263427                                1363.8877298393186                                1362.2024994912395                                1360.1192522823071
