% Model:              batchmodel_BILLETTA_r_0.0445341_COIL_kr_1.6756_COIL_kw_5.8583_FUNZ_freq_6066_FUNZ_I_eff_85.0125.mph
% Version:            COMSOL 5.6.0.401
% Date:               Jan 27 2022, 15:25
% Table:              Tabella delle sonde 1 - 
% Tempo (s)                                       Temperatura (degC), Punto: (0, 0.5)               Temperatura (degC), Punto: (0.5*BILLETTA_r, 0.5)  Temperatura (degC), Punto: (BILLETTA_r-10*FUNZ_depth_billetta, 0.5)Temperatura (degC), Punto: (BILLETTA_r-5*FUNZ_depth_billetta, 0.5)Temperatura (degC), Punto: (BILLETTA_r-2*FUNZ_depth_billetta, 0.5)Temperatura (degC), Punto: (BILLETTA_r-FUNZ_depth_billetta, 0.5)Temperatura (degC), Punto: (BILLETTA_r-0.01[mm], 0.5)
0                                                 20                                                20                                                20.0000000001678                                  20.00098671709219                                 20.260271204915966                                20.51997325048228                                 20.77021289916547
5                                                 21.16414804637452                                 44.66899106100914                                 590.0479964335594                                 716.8285459662189                                 785.3044804612872                                 799.0151187492658                                 803.7858735698381
10                                                39.184680232778476                                134.3120093294051                                 970.0843566400414                                 1090.1791792812865                                1122.4559689100893                                1126.1371796863832                                1126.3675035623069
15                                                85.61743688512871                                 236.33166191688002                                1081.8024686466747                                1134.9300701198486                                1147.0421583340571                                1147.8381765014133                                1147.0657106677568
20                                                153.61134512896075                                329.85487625228484                                1115.5237778904784                                1148.1228510317856                                1154.8165095232348                                1154.8456462265644                                1153.804928045458
25                                                226.55754471393868                                410.70487660819515                                1136.4397256050288                                1158.9693833561296                                1162.918079243258                                 1162.5461680962553                                1161.3556366667885
30                                                296.4949202332741                                 479.95367793386254                                1152.2669196141173                                1168.9967716215333                                1171.341672421765                                 1170.7276144134835                                1169.4384608352134
35                                                361.1234895430588                                 539.2893270163169                                 1165.5863102157555                                1178.8154923295729                                1180.1703184619391                                1179.3988402552382                                1178.0376613898616
40                                                419.37796194435145                                591.356527304654                                  1178.795881449927                                 1189.519064576542                                 1190.143093875758                                 1189.2480464550044                                1187.8231251463767
45                                                471.22153383489024                                637.2477686239129                                 1192.4865378378768                                1201.3453413956913                                1201.4087730811534                                1200.4117909323281                                1198.9271488825684
50                                                518.0893395758095                                 678.3406498678512                                 1206.892361124003                                 1214.431830438626                                 1214.07741157498                                  1212.9968326785188                                1211.4567664848237
55                                                560.1978583015117                                 714.8929086077345                                 1222.078834515958                                 1228.8117910981582                                1228.173516067739                                 1227.0265396374243                                1225.4351703324328
60                                                598.0637365759075                                 750.2980831977203                                 1238.580945924285                                 1244.6931975248426                                1243.809962561421                                 1242.598381099573                                 1240.952341714491
65                                                631.794517181095                                  785.0603352036939                                 1256.4824926260985                                1262.109980952997                                 1261.0062882491566                                1259.7296108058345                                1258.0244902062218
70                                                661.742382424037                                  822.0726825525545                                 1275.9093189949067                                1281.0847386124947                                1279.7543092449341                                1278.4072652504033                                1276.6367568803594
75                                                687.9652819267759                                 861.7493237088355                                 1296.8895287740716                                1301.6255957212825                                1300.0562716011395                                1298.6326696950996                                1296.7900792451792
80                                                710.173026473773                                  901.8539629111184                                 1318.7934840130706                                1323.0545261835887                                1321.224143073916                                 1319.7176643468188                                1317.7976750963253
85                                                728.3469659766023                                 942.2379646636381                                 1341.5659094593243                                1345.3086487845649                                1343.1932045015328                                1341.5973783141144                                1339.5947449903679
90                                                746.2257977138762                                 981.5966355287859                                 1362.6238638235595                                1365.7203201405382                                1363.3009983052548                                1361.6173588207216                                1359.5362160118602
95                                                764.0864242042281                                 1019.8117571325855                                1381.7665601819513                                1384.0813628254682                                1381.3394789961017                                1379.5701376882253                                1377.4153311439436
95.99891411916128                                 767.5778856637852                                 1027.3412803405827                                1385.4154982851092                                1387.5599071959932                                1384.751306181117                                 1382.9649406378685                                1380.795806496782
