% Model:              batchmodel_BILLETTA_r_0.0445341_COIL_kr_2.4069_COIL_kw_4.5299_FUNZ_freq_4639.7_FUNZ_I_eff_85.0125.mph
% Version:            COMSOL 5.6.0.401
% Date:               Jan 27 2022, 17:58
% Table:              Tabella delle sonde 1 - 
% Tempo (s)                                       Temperatura (degC), Punto: (0, 0.5)               Temperatura (degC), Punto: (0.5*BILLETTA_r, 0.5)  Temperatura (degC), Punto: (BILLETTA_r-10*FUNZ_depth_billetta, 0.5)Temperatura (degC), Punto: (BILLETTA_r-5*FUNZ_depth_billetta, 0.5)Temperatura (degC), Punto: (BILLETTA_r-2*FUNZ_depth_billetta, 0.5)Temperatura (degC), Punto: (BILLETTA_r-FUNZ_depth_billetta, 0.5)Temperatura (degC), Punto: (BILLETTA_r-0.01[mm], 0.5)
0                                                 20                                                19.999999999999943                                20.000000000089358                                20.00051519233                                    20.19690588836619                                 20.397309539557796                                20.5991571697449
5                                                 20.77065763737062                                 40.27515153388947                                 485.1824579310122                                 600.1275946397841                                 661.4708711587771                                 673.475751266558                                  677.792281944104
10                                                37.359089322593036                                121.98786350142677                                835.5218819437881                                 1002.4151985836962                                1064.870465292127                                 1074.0810373839495                                1076.299689142024
15                                                83.2750876209953                                  219.35777690868264                                1026.906571467899                                 1121.3274481202393                                1143.7498461239347                                1145.8013841500929                                1145.2838729918112
20                                                147.65600929505393                                309.3943456614587                                 1091.4525722515878                                1148.7628999132717                                1161.5354419686046                                1162.2455365888359                                1161.2470491026274
25                                                216.46534944463292                                388.33284699209867                                1110.9022834302345                                1145.6521813791314                                1152.5431123589779                                1152.4649569994358                                1151.2336974346435
30                                                281.2737114836199                                 454.36172785416863                                1126.1465052109397                                1151.7508003203616                                1156.170275696967                                 1155.7391449065472                                1154.383141377465
35                                                341.1706267308732                                 512.1084327550622                                 1139.0890977262516                                1158.6734179023515                                1161.4475650950094                                1160.7741622491149                                1159.3251520205986
40                                                395.8719930811769                                 562.9606127653763                                 1150.5090191389663                                1165.8962113704556                                1167.5063356715386                                1166.6557357227848                                1165.1328414571562
45                                                446.73648897717794                                609.4431677105912                                 1161.6520783449164                                1173.7808435204756                                1174.469994318336                                 1173.4736915158446                                1171.8846571032855
50                                                493.3414034497247                                 651.234979490928                                  1172.7001008943598                                1182.5288979799388                                1182.543408671414                                 1181.4327996817037                                1179.7847504732135
55                                                536.0501758279283                                 689.0860655527063                                 1183.8027653147                                   1191.9230693457812                                1191.419806906572                                 1190.2151261786362                                1188.5123891633998
60                                                574.8691323040435                                 723.0325201516378                                 1194.9720015408975                                1201.9501144554133                                1201.0798801680749                                1199.8006090950116                                1198.0473182803817
65                                                609.9660257476246                                 756.2174199598295                                 1206.7687007802947                                1212.8564004059704                                1211.6842022617475                                1210.338357168563                                 1208.5360662236312
70                                                641.3793295987442                                 789.3238217084726                                 1219.3172730181527                                1224.6880990671793                                1223.2579710694063                                1221.850791782745                                 1220.0004187218651
75                                                669.1974563318838                                 823.6233871355365                                 1232.9494566191897                                1237.7357233915718                                1236.0743987060514                                1234.6066241845383                                1232.7051114770934
80                                                693.467246709771                                  859.8408240250118                                 1247.8331632057157                                1252.1216378685758                                1250.2413977427127                                1248.7110608384132                                1246.7536749494361
85                                                714.1689473309821                                 896.200354155032                                  1263.8518357061403                                1267.6987207231664                                1265.6026768489119                                1264.006630211224                                 1261.9885267584891
90                                                731.3121933715869                                 932.0758056213889                                 1281.015890640348                                 1284.4417733112004                                1282.1220155236738                                1280.455331029596                                 1278.3708897165543
95                                                747.5558997051647                                 967.1385003666129                                 1298.9938804814196                                1302.001944039927                                 1299.4485566744884                                1297.7069024387329                                1295.5516839590196
100                                               764.8278829044774                                 1000.8433763307347                                1317.5511951298904                                1320.1145542448571                                1317.3107613099091                                1315.4893626304192                                1313.2594010009243
105                                               786.5422534731755                                 1033.594489051974                                 1336.2809217070298                                1338.3622229771659                                1335.2941128012621                                1333.3899012561146                                1331.0829342108086
110                                               817.0596527500787                                 1065.4651103685633                                1354.6605615121694                                1356.1952467280216                                1352.8477110726199                                1350.858992220285                                 1348.4746536822213
115                                               854.4359952603246                                 1096.5551872168508                                1371.8001937092545                                1372.7367083609024                                1369.108399586065                                 1367.0381949566945                                1364.5804244358842
120                                               899.2197789528806                                 1127.036967985935                                 1386.2536720846101                                1386.5381155671816                                1382.6437966759922                                1380.5018513979362                                1377.9811593864442
122.78482725930004                                927.2532295908615                                 1143.7124094733517                                1393.459014922596                                 1393.357425676541                                 1389.317785156814                                 1387.1386206885304                                1384.585987069736
