% Model:              batchmodel_BILLETTA_r_0.0445341_COIL_kr_1.9397_COIL_kw_5.8583_FUNZ_freq_4639.7_FUNZ_I_eff_162.3068.mph
% Version:            COMSOL 5.6.0.401
% Date:               Jan 27 2022, 17:01
% Table:              Tabella delle sonde 1 - 
% Tempo (s)                                       Temperatura (degC), Punto: (0, 0.5)               Temperatura (degC), Punto: (0.5*BILLETTA_r, 0.5)  Temperatura (degC), Punto: (BILLETTA_r-10*FUNZ_depth_billetta, 0.5)Temperatura (degC), Punto: (BILLETTA_r-5*FUNZ_depth_billetta, 0.5)Temperatura (degC), Punto: (BILLETTA_r-2*FUNZ_depth_billetta, 0.5)Temperatura (degC), Punto: (BILLETTA_r-FUNZ_depth_billetta, 0.5)Temperatura (degC), Punto: (BILLETTA_r-0.01[mm], 0.5)
0                                                 20                                                20                                                20.00000001343699                                 20.049942737518847                                20.582089995970307                                20.923401035323536                                21.2403150895708
5                                                 20.90834339582625                                 62.81282581425626                                 1206.2586429345542                                1328.688464032828                                 1357.2843269625155                                1359.7783147010528                                1358.855779143336
8.344631256087544                                 31.900807920866953                                151.68225777472713                                1335.3190696761267                                1386.9728361489879                                1396.9489806727265                                1396.7721440474838                                1394.86343952159
