% Model:              batchmodel_BILLETTA_r_0.0445341_COIL_kr_2.7711_COIL_kw_3.7744_FUNZ_freq_4639.7_FUNZ_I_eff_85.0125.mph
% Version:            COMSOL 5.6.0.401
% Date:               Jan 27 2022, 19:16
% Table:              Tabella delle sonde 1 - 
% Tempo (s)                                       Temperatura (degC), Punto: (0, 0.5)               Temperatura (degC), Punto: (0.5*BILLETTA_r, 0.5)  Temperatura (degC), Punto: (BILLETTA_r-10*FUNZ_depth_billetta, 0.5)Temperatura (degC), Punto: (BILLETTA_r-5*FUNZ_depth_billetta, 0.5)Temperatura (degC), Punto: (BILLETTA_r-2*FUNZ_depth_billetta, 0.5)Temperatura (degC), Punto: (BILLETTA_r-FUNZ_depth_billetta, 0.5)Temperatura (degC), Punto: (BILLETTA_r-0.01[mm], 0.5)
0                                                 20                                                20                                                20.0000000000893                                  20.000515191937666                                20.196905859615242                                20.397309495172124                                20.599157113080878
5                                                 20.686449263349004                                38.74001478107863                                 463.0873236387988                                 571.893903433962                                  631.1243089714711                                 642.8837485101005                                 647.1573028962882
10                                                36.246524648248055                                118.8731887829025                                 823.1238632803808                                 996.8284241940493                                 1063.9367451186677                                1073.8439022034863                                1076.275320896897
15                                                81.03793941928461                                 216.27491627089654                                1020.8257633814013                                1113.6106669167993                                1136.2301373646928                                1138.3392099528928                                1137.859539405049
20                                                145.32573685252925                                306.2273310866217                                 1078.5626190970365                                1132.33632724384                                  1144.4878681624568                                1145.1728818541674                                1144.2125806971212
25                                                213.77070688380064                                385.8677007247112                                 1119.843500240327                                 1155.8617567918595                                1162.826331366105                                 1162.7157122791918                                1161.4443748727235
30                                                280.2707569535635                                 454.6625800338551                                 1128.4998717886897                                1153.5455279321664                                1157.7942440274242                                1157.3344482122402                                1155.9647046917644
35                                                340.404867006416                                  512.4215809508236                                 1140.0218351995973                                1159.312928982757                                 1162.003254842878                                 1161.3167507387566                                1159.8619841642103
40                                                395.34138554808465                                563.247502173512                                  1151.0786961869208                                1166.318234262049                                 1167.884196669585                                 1167.0263621611807                                1165.5000804820552
45                                                444.21174089403723                                607.416498924436                                  1161.505158773747                                 1173.8675276304925                                1174.6170112563113                                1173.628633580668                                 1172.0417936054882
50                                                488.4684543299155                                 646.9235026542823                                 1171.7658719805704                                1181.9786737426239                                1182.102289976141                                 1181.0081333525804                                1179.3666693214604
55                                                530.3648768949297                                 684.2655149587185                                 1182.3633917484372                                1190.7718088740944                                1190.3578550656744                                1189.168602372336                                 1187.4740479901575
60                                                568.8974738132333                                 718.6632582691185                                 1193.7115080937801                                1200.7901240040715                                1199.958523413175                                 1198.6881248253212                                1196.9417017678606
65                                                604.4930099713448                                 750.9082368120297                                 1205.7190553762885                                1211.8538438769042                                1210.7020376702703                                1209.3617760013813                                1207.5644211949893
70                                                636.3797716775323                                 785.6545327437842                                 1218.6100234824958                                1223.9337079259617                                1222.493980301003                                 1221.0868944250751                                1219.238170528939
75                                                664.9079018973736                                 820.7904897004754                                 1232.2827834223126                                1237.0429922945655                                1235.3771905557287                                1233.9100597979773                                1232.010153005615
80                                                689.8203362260842                                 856.4161613284813                                 1246.9642609306661                                1251.2658742591702                                1249.392766685463                                 1247.8651912498408                                1245.910710640992
85                                                710.9670422673823                                 892.5899426760594                                 1262.7868983494604                                1266.651482825052                                 1264.5646951658427                                1262.9720852527635                                1260.957552169847
90                                                728.743369725646                                  929.1412059084574                                 1279.6224493090376                                1283.1306616483066                                1280.841873668599                                 1279.182734877806                                 1277.1043041235612
95                                                747.7993189088962                                 963.9737126977096                                 1297.140092266838                                 1300.2116936762623                                1297.6878192450367                                1295.9546791207536                                1293.8070847602157
100                                               766.0516567265007                                 998.0265926699229                                 1315.488037618325                                 1318.1148716331118                                1315.3428800580064                                1313.5309443556926                                1311.3095569544562
105                                               789.234444139637                                  1031.1782170073725                                1333.9133402364296                                1336.051861936597                                 1333.0175633033768                                1331.1240693468603                                1328.8270361754126
110                                               821.2418115051458                                 1063.3459848318012                                1351.9046580729573                                1353.4872894390214                                1350.1757065796887                                1348.199271376779                                 1345.8266254286327
114.74023302792418                                856.9625280537629                                 1092.9928259433004                                1368.9245819191974                                1369.9349116015928                                1366.3471806742014                                1364.2898539128678                                1361.8442113954993
