% Model:              batchmodel_BILLETTA_r_0.0445341_COIL_kr_1.6756_COIL_kw_5.3284_FUNZ_freq_6066_FUNZ_I_eff_61.5962.mph
% Version:            COMSOL 5.6.0.401
% Date:               Jan 27 2022, 15:04
% Table:              Tabella delle sonde 1 - 
% Tempo (s)                                       Temperatura (degC), Punto: (0, 0.5)               Temperatura (degC), Punto: (0.5*BILLETTA_r, 0.5)  Temperatura (degC), Punto: (BILLETTA_r-10*FUNZ_depth_billetta, 0.5)Temperatura (degC), Punto: (BILLETTA_r-5*FUNZ_depth_billetta, 0.5)Temperatura (degC), Punto: (BILLETTA_r-2*FUNZ_depth_billetta, 0.5)Temperatura (degC), Punto: (BILLETTA_r-FUNZ_depth_billetta, 0.5)Temperatura (degC), Punto: (BILLETTA_r-0.01[mm], 0.5)
0                                                 20                                                20                                                20.000000000021714                                20.000100424146524                                20.140705841568547                                20.332431657533903                                20.53071487450336
5                                                 20.667755642200575                                34.52020864668776                                 330.2845182506578                                 388.93652216325813                                423.7169863200488                                 431.21033709260246                                434.10221824113967
10                                                32.166143184650196                                91.91792455246616                                 587.7314608922263                                 671.0197276325375                                 716.7499476577577                                 725.9299960286959                                 729.2363329055065
15                                                67.49939902129375                                 173.23781195958088                                810.1869008992879                                 934.9069015038696                                 990.9999486015269                                 1000.4654746113193                                1003.2038183016813
20                                                120.37281048639426                                256.0938718963499                                 961.9344229306167                                 1051.7636726547457                                1079.6012622069843                                1082.9526820123046                                1083.1963392594153
25                                                181.01497046972224                                334.5362107233053                                 1019.0097495015524                                1073.7087388113887                                1088.2467681535295                                1089.6990132313972                                1089.2995743874321
30                                                243.7628300143067                                 404.56979445347645                                1049.758370587448                                 1088.1982637614724                                1097.6313068931563                                1098.2240179990667                                1097.5028205625613
35                                                304.8795586984487                                 465.80909085375674                                1066.6707478369567                                1096.1634422289376                                1102.99501164408                                  1103.2067618870797                                1102.347519980775
40                                                361.78093740680515                                519.079767937902                                  1078.8406409746017                                1102.5595390902686                                1107.6712358113464                                1107.6249116884583                                1106.669809940066
45                                                413.31378609286                                   565.3897751155541                                 1090.4326671235926                                1109.2105771974393                                1112.7698930414422                                1112.4760193717416                                1111.4258972381936
50                                                460.0655521194766                                 606.0734812114165                                 1100.168261383617                                 1115.217497245731                                 1117.6127491153138                                1117.132872031756                                 1116.0093626277048
55                                                502.089404528885                                  641.1981768921223                                 1108.1628245089378                                1120.6407055471022                                1122.2366857486245                                1121.6277264849546                                1120.450700338366
60                                                540.2977698511777                                 672.7031495198567                                 1115.4083736498956                                1125.7771159487738                                1126.7192016594577                                1126.0041662323433                                1124.7818000854022
65                                                574.5725380296075                                 700.3248874587214                                 1121.8204409055425                                1130.6310045484802                                1131.0889497245048                                1130.2939381643228                                1129.0353167561161
70                                                605.3832876823949                                 725.0750736315144                                 1127.9705204734478                                1135.4279834386284                                1135.4587932175673                                1134.591654173686                                 1133.299306654801
75                                                633.0714848617847                                 748.6920719380724                                 1134.009955350362                                 1140.3197640288126                                1139.9822893975802                                1139.0512557905558                                1137.7275476855225
80                                                658.1112737320382                                 773.1245082136387                                 1140.2714813803173                                1145.5227346327392                                1144.8394958889253                                1143.8469985839715                                1142.4919325063547
85                                                680.2820302199619                                 797.4656671566098                                 1146.6002732111501                                1150.936207580371                                 1149.9466300586073                                1148.897799675949                                 1147.5124777256733
90                                                699.6089235098808                                 821.7158208901964                                 1153.0001902337076                                1156.5627308411745                                1155.3059521792602                                1154.2058845815127                                1152.7913918981176
95                                                717.2049680646068                                 845.8870030609863                                 1159.6418997916267                                1162.514978979003                                 1161.017414482089                                 1159.8696685046934                                1158.4263402170855
100                                               732.4378856109345                                 869.9723776272748                                 1166.4284496377145                                1168.7289441295861                                1167.0242363714574                                1165.8332440001336                                1164.36184130125
105                                               745.3076761488635                                 893.9719445890631                                 1173.3598397719716                                1175.204626292923                                 1173.3264178473664                                1172.0966110678332                                1170.5978951506104
110                                               758.9527382669518                                 917.3381858199642                                 1180.6026573167942                                1182.0501012292557                                1180.0139221615577                                1178.7467861246182                                1177.2202480956835
115                                               775.9613600857018                                 939.6195542579047                                 1188.2942893687418                                1189.3545007675903                                1187.160943464069                                 1185.8555330180698                                1184.2996165233108
120                                               793.8232967976888                                 961.2539816999289                                 1196.3014913933239                                1197.0313806248632                                1194.6955247426972                                1193.3532517587873                                1191.7674163212896
125                                               812.5385484029126                                 982.2414681460365                                 1204.6242633905395                                1205.0807408010742                                1202.6176659974408                                1201.239942346771                                 1199.6236474896195
130                                               840.2388706508585                                 1001.818890715569                                 1213.7765044859834                                1213.9576176659962                                1211.3654709097868                                1209.951922779666                                 1208.3050779377463
135                                               868.4730226396945                                 1021.3295290624513                                1222.9701839621166                                1222.87392585529                                  1220.152091773316                                 1218.7026490162843                                1217.0252664250143
140                                               896.7071746285304                                 1040.8401674093338                                1232.1638634382489                                1231.7902340445844                                1228.9387126368447                                1227.4533752529028                                1225.7454549122822
145                                               924.1245617806952                                 1059.707370608522                                 1241.5250964500783                                1240.8819710907292                                1237.9019135017957                                1236.3803455215616                                1234.6411641396567
150                                               950.3052821255072                                 1077.600346154767                                 1251.1400229202286                                1250.239325649502                                 1247.1324748318366                                1245.574167562765                                 1243.8026300004544
155                                               976.4860024703195                                 1095.4933217010116                                1260.754949390379                                 1259.5966802082748                                1256.363036161877                                 1254.7679896039685                                1252.9640958612517
160                                               1002.6667228151315                                1113.3862972472562                                1270.3698758605292                                1268.9540347670481                                1265.5935974919175                                1263.9618116451725                                1262.1255617220495
165                                               1025.4800260567768                                1129.923478807681                                 1279.8763698006715                                1278.2148918561566                                1274.7304567545052                                1273.061973329338                                 1271.1929154797976
170                                               1047.7194229067577                                1146.2295934077606                                1289.3643836653946                                1287.4593029533007                                1283.8513464434473                                1282.1461725485324                                1280.2442297818384
175                                               1069.9588197567382                                1162.5357080078402                                1298.8523975301173                                1296.7037140504444                                1292.9722361323898                                1291.2303717677273                                1289.2955440838796
180                                               1091.7038554618366                                1178.6078583707722                                1308.2933011923742                                1305.9032679604766                                1302.0488892666413                                1300.270388832741                                 1298.3026472929196
185                                               1111.8131185507532                                1193.9058534501546                                1317.578323714023                                 1314.9543956459224                                1310.9791697631008                                1309.1642132637212                                1307.1634621133771
190                                               1131.097612510564                                 1208.8135134837685                                1326.7847497661442                                1323.9306856878125                                1319.8356480502543                                1317.9843262446739                                1315.9505172036284
195                                               1149.5573373412694                                1223.3308384716124                                1335.9125793487365                                1332.8321380861466                                1328.6183241281024                                1326.7307277756                                   1324.6638125636723
200                                               1167.192293042869                                 1237.4578284136878                                1344.9618124618005                                1341.658752840926                                 1337.3271979966444                                1335.403417856499                                 1333.3033481935095
205                                               1184.0780796595286                                1251.1280768325628                                1353.6954006160227                                1350.1772712639745                                1345.732023500192                                 1343.7731849162296                                1341.640895216572
210                                               1200.3665715240104                                1264.2081785224314                                1361.6371326987742                                1357.9190956445577                                1353.370254860466                                 1351.3795615726253                                1349.2179604040748
215                                               1215.9218293560893                                1276.8175414657067                                1369.2132545062223                                1365.3036571950051                                1360.6559063419345                                1358.6347017648013                                1356.4449306750912
220                                               1230.743853155766                                 1288.9561656623891                                1376.423766038366                                 1372.3309559153158                                1367.5889779445965                                1365.538605492758                                 1363.3218060296226
225                                               1244.8326429230406                                1300.6240511124788                                1383.2686672952068                                1379.0009918054907                                1374.1694696684522                                1372.091272756495                                 1369.8485864676686
228.44490627046872                                1254.1129313876886                                1308.3891116721993                                1387.7719499186796                                1383.3886523319056                                1378.4981606628849                                1376.401574869441                                 1374.1417172390775
