% Model:              batchmodel_BILLETTA_r_0.0445341_COIL_kr_2.4069_COIL_kw_5.8583_FUNZ_freq_2540.9_FUNZ_I_eff_85.0125.mph
% Version:            COMSOL 5.6.0.401
% Date:               Jan 27 2022, 18:33
% Table:              Tabella delle sonde 1 - 
% Tempo (s)                                       Temperatura (degC), Punto: (0, 0.5)               Temperatura (degC), Punto: (0.5*BILLETTA_r, 0.5)  Temperatura (degC), Punto: (BILLETTA_r-10*FUNZ_depth_billetta, 0.5)Temperatura (degC), Punto: (BILLETTA_r-5*FUNZ_depth_billetta, 0.5)Temperatura (degC), Punto: (BILLETTA_r-2*FUNZ_depth_billetta, 0.5)Temperatura (degC), Punto: (BILLETTA_r-FUNZ_depth_billetta, 0.5)Temperatura (degC), Punto: (BILLETTA_r-0.01[mm], 0.5)
0                                                 20                                                20                                                20.0000000000353                                  20.000161105185384                                20.10679498425185                                 20.21655167277362                                 20.337418467348243
5                                                 20.655345382295764                                34.08936048242117                                 281.31458219337765                                361.89198310960364                                411.511922959941                                  421.92471023029464                                425.864654277285
10                                                32.27575692561334                                 94.67124427018729                                 532.0768231724646                                 651.4818993834156                                 714.1158752298571                                 726.1906401894707                                 730.3570485570398
15                                                67.79261207370303                                 177.45804053576467                                735.4667167105907                                 898.2403698899776                                 975.4354864102351                                 988.1215168818156                                 991.6111426780927
20                                                123.05202778812992                                262.6065751962136                                 913.501725431499                                  1057.9475408297253                                1100.8791097989006                                1105.789466078645                                 1105.9373018887154
25                                                185.8671152944537                                 342.2816680074354                                 1013.5133768186039                                1108.7858805696883                                1130.7988949331784                                1132.484409524122                                 1131.4537567679222
30                                                248.48670084200432                                411.15115160556763                                1055.1300793764635                                1120.2182476089915                                1134.1951385949296                                1134.7681838207636                                1133.3644437256062
35                                                309.0761780610969                                 474.6108268198568                                 1096.2393851855436                                1144.655176995021                                 1153.7988415433692                                1153.6187895528842                                1151.898055082012
40                                                365.1015527642202                                 529.1294275172023                                 1106.9450714963045                                1140.8216536030545                                1146.3797442051832                                1145.7440626104917                                1143.9036288430966
45                                                415.91968477541457                                576.5822285667722                                 1116.6605996777193                                1142.5864804011808                                1146.047611513212                                 1145.124608763328                                 1143.1923106061395
50                                                462.5843535662593                                 619.0838387981147                                 1125.8396963207656                                1146.109561549692                                 1148.0597253048113                                1146.9216301060114                                1144.9124363602568
55                                                506.0709161903493                                 657.925033232891                                  1134.4163436507652                                1150.3494935309336                                1151.1218243097355                                1149.8106113177664                                1147.7343191964214
60                                                546.3267205662884                                 693.2301625560459                                 1142.435024639838                                 1155.124508577885                                 1154.9970938842844                                1153.548110533451                                 1151.413215458319
65                                                582.9627430539376                                 724.9392770124989                                 1149.9362590642459                                1160.1160934376871                                1159.280732717055                                 1157.7191017370728                                1155.5322267226416
70                                                616.2448205976287                                 755.9014586052152                                 1157.2593516712382                                1165.451720967082                                 1164.0418037541322                                1162.3843268600313                                1160.1491245705151
75                                                646.2647933852613                                 788.4137631325533                                 1164.6930900438083                                1171.1332710597362                                1169.2071363044602                                1167.4605841569214                                1165.177694309159
80                                                672.9771366328491                                 821.337549968698                                  1172.0943234259062                                1177.1598118604884                                1174.8130007631753                                1172.9891163731431                                1170.6606721889557
85                                                696.381850340392                                  854.6728191136498                                 1179.4630518175304                                1183.5313433693386                                1180.8593971302762                                1178.969923508695                                 1176.598058209905
90                                                717.6560907070137                                 886.2326873338956                                 1187.366730659357                                 1190.4835859752234                                1187.496914623161                                 1185.5415095681255                                1183.1236409293074
95                                                736.1699301795925                                 917.1874139419002                                 1195.5016994707157                                1197.8903994361467                                1194.6449689512206                                1192.6297573792635                                1190.1658265360784
100                                               751.9012377457492                                 947.5781132264459                                 1203.8572898599418                                1205.747352113513                                 1202.3007289762968                                1200.232063010837                                 1197.7220997512618
105                                               772.3533769053885                                 976.4047171374388                                 1212.8752528608675                                1214.2778388417933                                1210.628583327376                                 1208.5052336138797                                1205.9479072483778
110                                               797.3908166504638                                 1003.685289604601                                 1222.5476092568497                                1223.4778245069865                                1219.62556270188                                  1217.4464368277777                                1214.8404412407108
115                                               824.8639332497906                                 1029.7063381406388                                1232.7478026701233                                1233.283309165919                                 1229.244571727444                                 1227.0107492827524                                1224.3551681189888
120                                               855.1586039370396                                 1054.5753525808796                                1243.492292711784                                 1243.6527241498106                                1239.426202392322                                 1237.135522829357                                 1234.4275079323743
125                                               888.6485148642963                                 1078.3964268169748                                1254.7970189817825                                1254.545814075529                                 1250.1129235716517                                1247.7600885712145                                1244.9949210148184
130                                               925.0152436932602                                 1101.0808612270703                                1266.6483991606788                                1265.996881025596                                 1261.353758209424                                 1258.9361431841003                                1256.1106981468029
135                                               962.9802285419674                                 1122.7939682715346                                1278.934390660118                                 1277.8839668803962                                1273.0248813303615                                1270.5398849963249                                1267.651369991348
140                                               997.1263972662626                                 1144.2361516905253                                1291.1802860819694                                1289.6903536446225                                1284.601665355783                                 1282.0467851629637                                1279.093815755126
145                                               1030.7462835717051                                1164.9817012736944                                1303.674615847654                                 1301.7301060695922                                1296.402982536179                                 1293.7756559234508                                1290.755991854125
150                                               1063.839887458295                                 1185.0306170210401                                1316.4173799571722                                1314.0032241553045                                1308.4288328715493                                1305.7264972777857                                1302.6378982883466
155                                               1090.2445194491406                                1203.7777450698627                                1328.469527006513                                 1325.5967028437517                                1319.7848496623142                                1317.0104151078863                                1313.8552909684986
160                                               1116.4042013899257                                1222.4889613851747                                1340.4903916740159                                1337.1596164621042                                1331.1108505414368                                1328.2644788367688                                1325.0429658812404
165                                               1142.5638833307107                                1241.2001777004862                                1352.5112563415187                                1348.7225300804562                                1342.436851420559                                 1339.5185425656514                                1336.2306407939823
170                                               1165.6305776382796                                1258.2640150313268                                1362.6529392940743                                1358.4647090993485                                1351.9829655896283                                1349.004486143609                                 1345.660024399116
175                                               1187.4333333728332                                1274.6546567048408                                1372.0267012146414                                1367.4628512954719                                1360.8017352829952                                1357.7678936090774                                1354.3708884141893
180                                               1209.2360891073877                                1291.0452983783543                                1381.4004631352095                                1376.4609934915952                                1369.620504976363                                 1366.5313010745458                                1363.0817524292625
182.71712092290113                                1221.084233864039                                 1299.9523694645304                                1386.4943920633432                                1381.3508015772609                                1374.4128377059824                                1371.2935486306123                                1367.8154466036426
