% Model:              batchmodel_BILLETTA_r_0.0445341_COIL_kr_1.9397_COIL_kw_4.5299_FUNZ_freq_6066_FUNZ_I_eff_61.5962.mph
% Version:            COMSOL 5.6.0.401
% Date:               Jan 27 2022, 16:24
% Table:              Tabella delle sonde 1 - 
% Tempo (s)                                       Temperatura (degC), Punto: (0, 0.5)               Temperatura (degC), Punto: (0.5*BILLETTA_r, 0.5)  Temperatura (degC), Punto: (BILLETTA_r-10*FUNZ_depth_billetta, 0.5)Temperatura (degC), Punto: (BILLETTA_r-5*FUNZ_depth_billetta, 0.5)Temperatura (degC), Punto: (BILLETTA_r-2*FUNZ_depth_billetta, 0.5)Temperatura (degC), Punto: (BILLETTA_r-FUNZ_depth_billetta, 0.5)Temperatura (degC), Punto: (BILLETTA_r-0.01[mm], 0.5)
0                                                 20                                                20                                                20.000000000022                                   20.000102774136224                                20.140954191798016                                20.333264020747606                                20.532951619660935
5                                                 20.664439675998892                                33.968321039261184                                314.61503214076185                                370.17375021697956                                403.5655772326942                                 410.8259682783922                                 413.645739602473
10                                                30.147837755687533                                89.75030135636331                                 589.3155535717068                                 676.6061715476179                                 724.5374245740234                                 734.2655114306389                                 737.725990397241
15                                                60.27563833044616                                 169.80036999128333                                802.1168030428151                                 919.552292289365                                  976.9689698414617                                 987.0845792538986                                 990.1101560889207
20                                                112.87292539840655                                254.87959045094703                                958.6301249706163                                 1049.1813185019569                                1077.625501926132                                 1081.1300630926635                                1081.4378450490613
25                                                175.98724931296908                                333.38312924206264                                1023.4728706459019                                1078.5365794323843                                1092.5434593383466                                1093.79062690016                                  1093.2967136437742
30                                                240.65938107529576                                403.54877926347535                                1050.9459484910058                                1088.9514778991374                                1098.2292211221684                                1098.8036309795912                                1098.0756105199903
35                                                302.9567395741343                                 464.8942858314807                                 1066.3299011214267                                1095.9291325668828                                1102.8049302850222                                1103.0213143140472                                1102.1638876002376
40                                                360.833392275714                                  517.802846453528                                  1077.3887542075977                                1101.8264589637474                                1107.1366895573165                                1107.1116198221798                                1106.1637278330463
45                                                412.95351676694736                                564.2130088698593                                 1088.4272618204832                                1108.1222740700855                                1111.967192860005                                 1111.7145637287554                                1110.6797216330842
50                                                459.638474632766                                  604.5776638714793                                 1098.8825722710067                                1114.46584344733                                  1117.0253551615015                                1116.5715045855377                                1115.4580385520826
55                                                501.73553516773654                                640.0367752220801                                 1107.2815160708742                                1119.925116996371                                 1121.578042082253                                 1120.9804300299197                                1119.8088165228792
60                                                539.6083124870071                                 671.2171907296795                                 1114.6403476556638                                1125.0935293174766                                1126.0695809013228                                1125.362272831961                                 1124.1440721316744
65                                                573.7646044526396                                 698.9064795991393                                 1121.3260853907614                                1130.1657291997303                                1130.6360504265626                                1129.8438984279896                                1128.5872385480152
70                                                604.501711469065                                  723.8776566609336                                 1127.6441712200617                                1135.1355889446772                                1135.177709690514                                 1134.312369306599                                 1133.0211911263632
75                                                631.8861640392894                                 746.4511507086896                                 1133.6332909811204                                1140.029231104561                                 1139.7169349594215                                1138.789450948921                                 1137.4674391437943
80                                                656.731392628625                                  770.3688785114285                                 1139.786553435078                                 1145.1509919550804                                1144.5012694702905                                1143.5136951709233                                1142.16095013528
85                                                678.7776399089793                                 794.4745472536998                                 1145.9420695016552                                1150.4069936836613                                1149.457386745385                                 1148.41498166273                                  1147.0328476829895
90                                                698.0249058803519                                 818.7681569355035                                 1152.0998391808516                                1155.7972362903029                                1154.5852867847047                                1153.4933104243405                                1152.0831317869224
95                                                715.2997269782517                                 842.8667526002477                                 1158.4508738861928                                1161.4759239969085                                1160.0290826529344                                1158.8909513547992                                1157.4530882116405
100                                               730.7766466341817                                 866.6894639204266                                 1165.0355103604293                                1167.4756208053604                                1165.8192073567193                                1164.63794823114                                  1163.172552910054
105                                               744.0900414005966                                 890.405693363335                                  1171.7692535365154                                1173.7281135349508                                1171.8919116004658                                1170.6713670933632                                1169.179027260071
110                                               756.0669049752136                                 913.870203430373                                  1178.70721039118                                  1180.274883828637                                 1178.2843652421607                                1177.0276516665522                                1175.5086094269714
115                                               772.725210172369                                  936.0261114383871                                 1186.2503903743673                                1187.4177905764004                                1185.2670506270747                                1183.9720002798008                                1182.4239831263599
120                                               790.4347507765093                                 957.510958001778                                  1194.1568935901169                                1194.9747442187772                                1192.676805387865                                 1191.3444380292126                                1189.7666903381478
125                                               809.1955267876345                                 978.3247431205449                                 1202.4267200384288                                1202.945744755766                                 1200.5136295245302                                1199.1449649147867                                1197.5367310623333
130                                               830.9074708566997                                 998.5657997652546                                 1211.012544859243                                 1211.2430656952351                                1208.679346538353                                 1207.274717958113                                 1205.6360825075844
135                                               855.8465050909577                                 1018.2484085686646                                1219.9074951904572                                1219.853966754753                                 1217.1596985205624                                1215.7193395548202                                1214.05050908764
140                                               883.2437271433736                                 1037.332774198123                                 1229.1307233930547                                1228.8139508273653                                1225.9944174796842                                1224.5188395316245                                1222.819680605679
145                                               912.4998634210991                                 1055.8751490136324                                1238.633026625484                                 1238.0687860421822                                1235.127742769499                                 1233.6171989372365                                1231.8874520938452
150                                               939.9519574147099                                 1074.2193658666652                                1248.11366100233                                  1247.2869894390687                                1244.2188470542474                                1242.6720115907078                                1240.9106471166365
155                                               967.8427567685454                                 1092.1549034704667                                1257.7567653848728                                1256.6715207381503                                1253.4764114095678                                1251.8929252598323                                1250.0993850517561
160                                               996.1722614826054                                 1109.6817618250384                                1267.5623397731124                                1266.222379939426                                 1262.9004358354591                                1261.2799399446108                                1259.4536658992038
165                                               1019.712860859048                                 1125.8289610033962                                1277.0904892198232                                1275.5076338864656                                1272.062280626741                                 1270.4051391393514                                1268.5460533830155
170                                               1040.7842506736906                                1141.437365593143                                 1286.4313918450807                                1284.6101418792878                                1281.0430019083597                                1279.3495076258582                                1277.4577523085122
175                                               1061.8556404883334                                1157.04577018289                                  1295.7722944703391                                1293.712649872111                                 1290.0237231899773                                1288.2938761123646                                1286.3694512340085
180                                               1082.9270303029757                                1172.654174772637                                 1305.1131970955971                                1302.8151578649336                                1299.0044444715954                                1297.2382445988715                                1295.2811501595047
185                                               1103.998420117619                                 1188.2625793623838                                1314.4540997208555                                1311.9176658577562                                1307.9851657532136                                1306.1826130853783                                1304.1928490850014
190                                               1122.4009692427394                                1202.5049810550386                                1323.3033407171047                                1320.5448842794444                                1316.4971169229966                                1314.6596346367123                                1312.6381502911058
195                                               1139.506289741607                                 1216.0834172781133                                1331.913602465891                                 1328.9410813292475                                1324.781215598402                                 1322.9094954492743                                1320.8567521384985
200                                               1156.6116102404744                                1229.6618535011885                                1340.5238642146765                                1337.337278379051                                 1333.065314273807                                 1331.1593562618364                                1329.0753539858915
205                                               1173.716930739342                                 1243.2402897242632                                1349.1341259634628                                1345.733475428854                                 1341.3494129492124                                1339.4092170743988                                1337.2939558332846
210                                               1190.8222512382094                                1256.8187259473384                                1357.7443877122487                                1354.1296724786575                                1349.6335116246178                                1347.6590778869609                                1345.5125576806781
215                                               1205.5947878989018                                1268.703010995814                                 1364.7782284561076                                1360.9830260948206                                1356.394618670778                                 1354.3918882604057                                1352.219328701467
220                                               1219.2334412275454                                1279.7638293572309                                1371.045826965034                                 1367.086458340329                                 1362.4154536029992                                1360.3873143213214                                1358.1912524778982
225                                               1232.872094556189                                 1290.8246477186472                                1377.3134254739603                                1373.1898905858375                                1368.4362885352202                                1366.3827403822365                                1364.1631762543293
230                                               1246.5107478848327                                1301.885466080064                                 1383.5810239828866                                1379.2933228313464                                1374.4571234674409                                1372.3781664431522                                1370.1351000307604
235                                               1260.1494012134763                                1312.9462844414807                                1389.8486224918124                                1385.3967550768548                                1380.477958399662                                 1378.3735925040678                                1376.1070238071916
236.63540841443864                                1264.6103548965316                                1316.564075525248                                 1391.8986391597768                                1387.3930759671066                                1382.4472632216816                                1380.3345865497013                                1378.0603306860644
