% Model:              batchmodel_BILLETTA_r_0.0445341_COIL_kr_2.7711_COIL_kw_5.3284_FUNZ_freq_4639.7_FUNZ_I_eff_85.0125.mph
% Version:            COMSOL 5.6.0.401
% Date:               Jan 27 2022, 19:55
% Table:              Tabella delle sonde 1 - 
% Tempo (s)                                       Temperatura (degC), Punto: (0, 0.5)               Temperatura (degC), Punto: (0.5*BILLETTA_r, 0.5)  Temperatura (degC), Punto: (BILLETTA_r-10*FUNZ_depth_billetta, 0.5)Temperatura (degC), Punto: (BILLETTA_r-5*FUNZ_depth_billetta, 0.5)Temperatura (degC), Punto: (BILLETTA_r-2*FUNZ_depth_billetta, 0.5)Temperatura (degC), Punto: (BILLETTA_r-FUNZ_depth_billetta, 0.5)Temperatura (degC), Punto: (BILLETTA_r-0.01[mm], 0.5)
0                                                 20                                                20                                                20.0000000000893                                  20.000515192089267                                20.19690587023655                                 20.39730951177779                                 20.599157134465486
5                                                 20.72690113846818                                 39.169459028564006                                459.31272528325644                                568.3853069779539                                 627.0785176501175                                 638.6989075150209                                 642.922955895868
10                                                32.94868274504307                                 115.32098594150762                                808.5362721093799                                 982.1630208004057                                 1052.6353583614327                                1063.4159469535202                                1066.2225888876346
15                                                73.60332143982907                                 213.3370075104756                                 1026.8524746400312                                1114.8830527111968                                1136.0796711665098                                1138.0290012665691                                1137.5033557902075
20                                                138.0152768305445                                 307.70957364455876                                1084.238122039183                                 1130.0494419717388                                1140.7360504439498                                1141.2553517794736                                1140.2540640852021
25                                                209.62344221789897                                390.47238900237653                                1113.174165743057                                 1145.3030272909823                                1151.3992512064083                                1151.2095290322632                                1149.9445635566462
30                                                280.27441577677087                                461.82355576094324                                1130.2483705303762                                1153.7094149530599                                1157.5375655169573                                1157.0203114594015                                1155.632561625342
35                                                345.70773981543425                                523.0545272922386                                 1143.5113769619952                                1161.5093057663803                                1163.829696899058                                 1163.086503954658                                 1161.6083336086672
40                                                404.5540058355916                                 576.39062036176                                   1155.3793065385821                                1169.3586782321604                                1170.5637571678526                                1169.6487894250017                                1168.0967204557428
45                                                457.3864921702544                                 623.0241285605182                                 1166.3844413722281                                1177.5231043645217                                1177.9213329418149                                1176.8758615720972                                1175.2615544972787
50                                                504.5665832878781                                 663.6662668941532                                 1176.8562963286217                                1186.1239730504626                                1185.9658382375633                                1184.8227546599323                                1183.1549082250926
55                                                547.2231724570651                                 700.1051339505103                                 1187.5488454136125                                1195.3417606906714                                1194.7294865777712                                1193.5012226445806                                1191.7817225904987
60                                                585.4583432628959                                 733.3024901228399                                 1198.5993601709201                                1205.298038903094                                 1204.3322615661318                                1203.0318955731386                                1201.2635952909227
65                                                619.6024843766152                                 764.6449722425715                                 1210.3111760507577                                1216.1678639926226                                1214.91602003245                                  1213.5522469792386                                1211.7367387923086
70                                                650.3800354357259                                 799.3025526180505                                 1223.5283418542163                                1228.6465084027172                                1227.1245862250507                                1225.695697995402                                 1223.8283709296702
75                                                677.5825765269294                                 835.8914560619531                                 1238.0167325068292                                1242.5490968189206                                1240.7889251097718                                1239.2961680120297                                1237.3740284785245
80                                                701.2480526379898                                 874.3221257894733                                 1253.7642149361213                                1257.8594135242447                                1255.8916414681335                                1254.3360944584301                                1252.3560934253737
85                                                723.1544073451831                                 910.3983050710079                                 1270.202284063033                                 1273.8176577768018                                1271.617668046853                                 1269.9925686558977                                1267.9490592733
90                                                742.3782006568418                                 946.2994732393805                                 1287.6262137829085                                1290.8184598675193                                1288.3903398198977                                1286.6929983093487                                1284.5816829990745
95                                                758.919432572966                                  982.0256302945903                                 1306.0360040957485                                1308.8618197963974                                1306.2096567872686                                1304.4373834187832                                1302.2539646026985
100                                               784.8189362101231                                 1016.0006709866863                                1324.100534333766                                 1326.4543743513086                                1323.5495252883848                                1321.6984225246201                                1319.4416679347496
105                                               815.1977889699484                                 1048.8632301548814                                1342.3591720510462                                1344.2012314556573                                1341.0283155618945                                1339.0949752633583                                1336.7624105739023
110                                               849.3441470855395                                 1080.7064857950254                                1360.8906119642388                                1362.1906774667054                                1358.7362489612115                                1356.717334392456                                 1354.306304059095
110.8650966048374                                 855.6344438169984                                 1086.11254788625                                  1364.1245924002774                                1365.327816516674                                 1361.8233164459803                                1359.7892572715173                                1357.3643813877216
