% Model:              batchmodel_BILLETTA_r_0.0445341_COIL_kr_1.4848_COIL_kw_3.2356_FUNZ_freq_6066_FUNZ_I_eff_127.5152.mph
% Version:            COMSOL 5.6.0.401
% Date:               Jan 27 2022, 12:21
% Table:              Tabella delle sonde 1 - 
% Tempo (s)                                       Temperatura (degC), Punto: (0, 0.5)               Temperatura (degC), Punto: (0.5*BILLETTA_r, 0.5)  Temperatura (degC), Punto: (BILLETTA_r-10*FUNZ_depth_billetta, 0.5)Temperatura (degC), Punto: (BILLETTA_r-5*FUNZ_depth_billetta, 0.5)Temperatura (degC), Punto: (BILLETTA_r-2*FUNZ_depth_billetta, 0.5)Temperatura (degC), Punto: (BILLETTA_r-FUNZ_depth_billetta, 0.5)Temperatura (degC), Punto: (BILLETTA_r-0.01[mm], 0.5)
0                                                 20                                                20                                                20.000000003102798                                20.020073795595692                                20.521428413312776                                20.88743096789159                                 21.218800583559528
5                                                 20.43768803299497                                 52.93133941514935                                 1081.0007626920628                                1210.6420103157352                                1242.6116968933875                                1246.0276921086693                                1245.9102476516637
10                                                40.364580132355286                                175.5151531865617                                 1241.4897896422262                                1283.1550627335705                                1291.5456689358066                                1291.5475404908661                                1290.1947086491432
15                                                103.47321456226223                                298.7492272183539                                 1286.132671044722                                 1310.7644929422                                   1314.7383536751827                                1314.0912230466138                                1312.4736534406793
20                                                187.3402711631109                                 405.092666793895                                  1324.5442124191204                                1342.936876791864                                 1345.217204406115                                 1344.2786618733676                                1342.4935817129935
25                                                272.0820158248396                                 496.748070402204                                  1365.206579071376                                 1380.4747862616018                                1381.7773739654322                                1380.6311681658776                                1378.6884203397208
27.73634756895323                                 316.28725741750463                                541.6582231237627                                 1384.981697320699                                 1398.4423605625852                                1399.1935728288126                                1397.9373550809082                                1395.91491424461
