% Model:              batchmodel_BILLETTA_r_0.0445341_COIL_kr_2.7711_COIL_kw_5.8583_FUNZ_freq_6066_FUNZ_I_eff_162.3068.mph
% Version:            COMSOL 5.6.0.401
% Date:               Jan 27 2022, 20:20
% Table:              Tabella delle sonde 1 - 
% Tempo (s)                                       Temperatura (degC), Punto: (0, 0.5)               Temperatura (degC), Punto: (0.5*BILLETTA_r, 0.5)  Temperatura (degC), Punto: (BILLETTA_r-10*FUNZ_depth_billetta, 0.5)Temperatura (degC), Punto: (BILLETTA_r-5*FUNZ_depth_billetta, 0.5)Temperatura (degC), Punto: (BILLETTA_r-2*FUNZ_depth_billetta, 0.5)Temperatura (degC), Punto: (BILLETTA_r-FUNZ_depth_billetta, 0.5)Temperatura (degC), Punto: (BILLETTA_r-0.01[mm], 0.5)
0                                                 20                                                20                                                20.000000026090675                                20.067576659796885                                20.764999995905498                                21.208575396302024                                21.603550607219972
5                                                 21.159609693957975                                66.75792098193517                                 1274.678660366501                                 1362.298847295091                                 1382.1902099045997                                1383.6127386884127                                1382.5101938337457
5.968267443054292                                 22.846740898809287                                90.61774221956023                                 1318.8148881665666                                1383.7546403547267                                1397.6238714127885                                1398.1879760749857                                1396.7659361765045
