% Model:              batchmodel_BILLETTA_r_0.0445341_COIL_kr_1.6756_COIL_kw_3.2356_FUNZ_freq_6066_FUNZ_I_eff_162.3068.mph
% Version:            COMSOL 5.6.0.401
% Date:               Jan 27 2022, 14:04
% Table:              Tabella delle sonde 1 - 
% Tempo (s)                                       Temperatura (degC), Punto: (0, 0.5)               Temperatura (degC), Punto: (0.5*BILLETTA_r, 0.5)  Temperatura (degC), Punto: (BILLETTA_r-10*FUNZ_depth_billetta, 0.5)Temperatura (degC), Punto: (BILLETTA_r-5*FUNZ_depth_billetta, 0.5)Temperatura (degC), Punto: (BILLETTA_r-2*FUNZ_depth_billetta, 0.5)Temperatura (degC), Punto: (BILLETTA_r-FUNZ_depth_billetta, 0.5)Temperatura (degC), Punto: (BILLETTA_r-0.01[mm], 0.5)
0                                                 20                                                20.000000000000057                                20.000000026090788                                20.067576706024283                                20.76500024528025                                 21.208575713080904                                21.603550978850535
5                                                 21.30544568893265                                 67.9557428208135                                  1271.1339651815847                                1358.2534487950556                                1378.1755872740473                                1379.614769522855                                 1378.5280318236146
5.8587467024497135                                22.815761098809162                                88.9278000938076                                  1313.0700061173275                                1379.7864122856272                                1394.1140136946065                                1394.7472412579787                                1393.357037981969
