% Model:              batchmodel_BILLETTA_r_0.0445341_COIL_kr_2.4069_COIL_kw_3.7744_FUNZ_freq_6066_FUNZ_I_eff_127.5152.mph
% Version:            COMSOL 5.6.0.401
% Date:               Jan 27 2022, 17:44
% Table:              Tabella delle sonde 1 - 
% Tempo (s)                                       Temperatura (degC), Punto: (0, 0.5)               Temperatura (degC), Punto: (0.5*BILLETTA_r, 0.5)  Temperatura (degC), Punto: (BILLETTA_r-10*FUNZ_depth_billetta, 0.5)Temperatura (degC), Punto: (BILLETTA_r-5*FUNZ_depth_billetta, 0.5)Temperatura (degC), Punto: (BILLETTA_r-2*FUNZ_depth_billetta, 0.5)Temperatura (degC), Punto: (BILLETTA_r-FUNZ_depth_billetta, 0.5)Temperatura (degC), Punto: (BILLETTA_r-0.01[mm], 0.5)
0                                                 20                                                20                                                20.000000003102855                                20.02007376343539                                 20.52142820793705                                 20.887430693806266                                21.218800252715027
5                                                 21.137216715570162                                56.90596301875985                                 1046.2886284393594                                1196.4956571633902                                1232.9481426766197                                1236.9179167472785                                1236.9918042852382
10                                                44.5731202468757                                  175.93430361262693                                1232.3777135827208                                1277.486647470017                                 1286.8089919006234                                1286.9502390345106                                1285.65396370208
15                                                106.34031875720927                                296.33225123930913                                1282.1577440768274                                1307.4877409521941                                1311.649869613946                                 1311.034407205705                                 1309.4343468675033
20                                                187.3574363690309                                 401.8621199993104                                 1322.179943334258                                 1340.6943857853666                                1343.0083528805371                                1342.0785811239052                                1340.3016812417245
25                                                271.17214798861903                                493.4073067781692                                 1362.9384759802142                                1378.4350975684174                                1379.8080392801576                                1378.6755155481842                                1376.7421522097698
27.607757913148678                                312.941050531012                                  536.3331007573664                                 1382.271813739606                                 1396.024852112731                                 1396.8613604120696                                1395.6217546600128                                1393.6107568111806
