% Model:              batchmodel_BILLETTA_r_0.0445341_COIL_kr_1.4848_COIL_kw_4.5299_FUNZ_freq_4639.7_FUNZ_I_eff_61.5962.mph
% Version:            COMSOL 5.6.0.401
% Date:               Jan 27 2022, 12:56
% Table:              Tabella delle sonde 1 - 
% Tempo (s)                                       Temperatura (degC), Punto: (0, 0.5)               Temperatura (degC), Punto: (0.5*BILLETTA_r, 0.5)  Temperatura (degC), Punto: (BILLETTA_r-10*FUNZ_depth_billetta, 0.5)Temperatura (degC), Punto: (BILLETTA_r-5*FUNZ_depth_billetta, 0.5)Temperatura (degC), Punto: (BILLETTA_r-2*FUNZ_depth_billetta, 0.5)Temperatura (degC), Punto: (BILLETTA_r-FUNZ_depth_billetta, 0.5)Temperatura (degC), Punto: (BILLETTA_r-0.01[mm], 0.5)
0                                                 20                                                20                                                20.00000000000574                                 20.000020085023948                                20.053120179362054                                20.173070974545794                                20.30317604062833
5                                                 20.638779137615302                                31.91443932541239                                 261.79305660095156                                311.42255818735475                                341.77829572672897                                348.5234568931277                                 351.18941641876984
10                                                28.636351920610878                                79.4116855053071                                  469.2298416687988                                 541.7726466302337                                 581.756603691211                                  589.763009782866                                  592.7027997056658
15                                                53.87435102971597                                 150.32600813665965                                651.0185916121033                                 735.882405663076                                  777.7401584792739                                 786.3966960187867                                 789.3839880332572
20                                                99.7537037209998                                  227.0804533083823                                 814.5278807109656                                 936.8403403396491                                 992.8493441709367                                 1002.1075650110021                                1004.6507603796409
25                                                157.9207754034465                                 302.3052667925415                                 957.2915313526947                                 1051.841879621306                                 1080.6899498118178                                1084.0460158946075                                1084.1472515837772
30                                                219.74895301305367                                373.1153743690618                                 1010.7588250082307                                1071.7259759793378                                1087.8737180248868                                1089.37003845543                                  1088.837395740512
35                                                280.3219435226347                                 437.04080792526406                                1037.4671148678335                                1081.7224171874436                                1092.8074607597487                                1093.5557276035493                                1092.7612515712458
40                                                337.33683915248935                                493.0250945150193                                 1056.5916911669465                                1090.1009107462064                                1097.8667029780058                                1098.1116173476403                                1097.1348716806692
45                                                390.2534269780913                                 541.8442094924312                                 1069.764849698157                                 1096.8321294833568                                1102.604322227081                                 1102.5396158749431                                1101.446176203062
50                                                438.4667430570189                                 585.3253720313905                                 1081.299164498259                                 1102.9236100503072                                1107.0297217535126                                1106.7073156201427                                1105.5161400445777
55                                                482.0448105725586                                 623.2757415882114                                 1090.7410891301583                                1108.2738467944478                                1111.1473040995766                                1110.6340859410016                                1109.3690192936829
60                                                521.89443422439                                   657.123103682434                                  1098.934775313161                                 1113.2329581169233                                1115.1214635076012                                1114.4534684936402                                1113.1267624777092
65                                                558.0821822744696                                 686.972271622279                                  1105.9421919726615                                1117.8266461049107                                1118.9642681097794                                1118.1752665311192                                1116.7983218015984
70                                                590.6820057647852                                 713.4111413348786                                 1112.0534744437532                                1122.1338129971778                                1122.7023023177958                                1121.8192907835955                                1120.4013874844018
75                                                620.0768074115447                                 737.714173459462                                  1117.940292935441                                 1126.3740188286747                                1126.4237536745368                                1125.4546363561867                                1123.9984855310413
80                                                646.1181810072025                                 759.5601021999684                                 1123.2854807230592                                1130.4502676181946                                1130.0951683764788                                1129.0570246963816                                1127.5684688590345
85                                                669.4014854170169                                 782.504682383268                                  1128.6152771291413                                1134.5954850699436                                1133.8602840993049                                1132.7566905622098                                1131.2366943908614
90                                                689.6720130159088                                 805.026683840187                                  1133.7045453901533                                1138.710020441486                                 1137.6576067020123                                1136.4979166580092                                1134.9495316762586
95                                                707.000948367516                                  827.789579366762                                  1138.8269064093265                                1142.956513209433                                 1141.614719602604                                 1140.4026607169762                                1138.8266946065933
100                                               721.3834342947285                                 850.7480978436209                                 1143.963690054823                                 1147.3238659012063                                1145.7229173286319                                1144.4626011272353                                1142.8600146753347
105                                               733.8793307530636                                 873.3399441688983                                 1149.144624286017                                 1151.8339026584445                                1150.0018846667035                                1148.697073102866                                 1147.068649929436
110                                               745.6005772614064                                 895.0853311133427                                 1154.4435597029956                                1156.5348342901657                                1154.4921045380825                                1153.1453129212432                                1151.4913002199924
115                                               756.4700848570461                                 916.208541390644                                  1159.834498644278                                 1161.4097246050428                                1159.1794041616263                                1157.7935965796623                                1156.1144320909298
120                                               769.9152275232046                                 936.3210880888222                                 1165.4258994318807                                1166.5295794068697                                1164.1236852401057                                1162.7000515728678                                1160.9953949826531
125                                               784.4124753900757                                 955.5956606830638                                 1171.1695503754459                                1171.8628353286072                                1169.298320380692                                 1167.838839175662                                 1166.1086960292241
130                                               803.2277426296813                                 974.3468018026095                                 1177.1672809410793                                1177.4805710015166                                1174.7647471336204                                1173.2697833977231                                1171.5134116659306
135                                               825.7374982082764                                 992.5144587086446                                 1183.3996497629264                                1183.3692160345545                                1180.511235791008                                 1178.9814625896652                                1177.1982629709064
140                                               851.1494121631766                                 1010.2253681516394                                1189.8982277758205                                1189.5502181996058                                1186.5559580796685                                1184.9914818890584                                1183.1805848418362
145                                               879.110642920317                                  1027.59453460356                                  1196.693306011417                                 1196.0442887606032                                1192.916546796475                                 1191.316945444542                                 1189.4772308245456
150                                               908.6589948302129                                 1044.5330235395659                                1203.7476783103716                                1202.8166912988072                                1199.5597773801242                                1197.9251186271717                                1196.05591707159
155                                               935.0727167860188                                 1061.0012932225654                                1210.9968870094935                                1209.7868966781216                                1206.4027724376992                                1204.733623913285                                 1202.835359957839
160                                               960.5407284387721                                 1077.0176744970695                                1218.4708135325227                                1216.9922367706617                                1213.4839524513213                                1211.780650054527                                 1209.8532411230772
165                                               985.0630297884733                                 1092.5821673630776                                1226.169457879459                                 1224.4327115764281                                1220.8033174209913                                1219.0661970508977                                1217.1095605673036
170                                               1008.6396208351217                                1107.6947718205902                                1234.0928200503022                                1232.1083210954193                                1228.3608673467083                                1226.5902649023965                                1224.6043182905178
175                                               1028.6433825695021                                1121.5134853247932                                1242.0380647058441                                1239.821455016528                                 1235.9591518011184                                1234.1550693757017                                1232.139318164669
180                                               1046.8899487327758                                1134.741076080892                                 1249.9035389987885                                1247.4599160605203                                1243.4834321970152                                1241.6457321441922                                1239.5999131656
185                                               1065.13651489605                                  1147.9686668369905                                1257.7690132917328                                1255.098377104513                                 1251.0077125929115                                1249.1363949126826                                1247.0605081665308
190                                               1083.3830810593236                                1161.1962575930893                                1265.6344875846771                                1262.7368381485053                                1258.5319929888078                                1256.627057681173                                 1254.5211031674621
195                                               1101.6296472225972                                1174.4238483491877                                1273.4999618776214                                1270.375299192498                                 1266.0562733847046                                1264.1177204496635                                1261.981698168393
200                                               1116.6674753475768                                1186.1567882945837                                1280.9950162655155                                1277.6650059420717                                1273.2391235177547                                1271.268244994667                                 1269.102774239117
205                                               1131.6979828058493                                1197.8863182263544                                1288.4892255483765                                1284.9539170162357                                1280.4211946850155                                1278.4179935216412                                1276.223075704716
210                                               1146.7284902641213                                1209.6158481581256                                1295.983434831238                                 1292.2428280904                                   1287.6032658522763                                1285.5677420486154                                1283.3433771703149
215                                               1161.7589977223934                                1221.3453780898967                                1303.477644114099                                 1299.5317391645644                                1294.785337019537                                 1292.7174905755896                                1290.4636786359142
220                                               1175.953304773845                                 1232.5974522883944                                1310.8081894511588                                1306.6635368883963                                1301.8127327973043                                1299.7130773053864                                1297.4301568418623
225                                               1188.7295847500031                                1243.0398579534735                                1317.8611937771143                                1313.528902088582                                 1308.5778303408274                                1306.4472367498224                                1304.1357818537485
230                                               1201.5058647261608                                1253.4822636185522                                1324.9141981030698                                1320.3942672887683                                1315.34292788435                                  1313.181396194258                                 1310.8414068656352
235                                               1214.2821447023184                                1263.924669283631                                 1331.9672024290253                                1327.2596324889546                                1322.1080254278727                                1319.9155556386936                                1317.5470318775215
240                                               1227.058424678476                                 1274.3670749487096                                1339.0202067549808                                1334.1249976891409                                1328.8731229713953                                1326.6497150831292                                1324.2526568894077
245                                               1238.9393582406638                                1284.2453946599408                                1345.7280621315435                                1340.6562863270933                                1335.3091636560075                                1333.0560613198768                                1330.631423599848
250                                               1250.1217815295172                                1293.6836390800254                                1352.1666473315358                                1346.9269429826554                                1341.488488512115                                 1339.2066619706343                                1336.755189700555
