% Model:              batchmodel_BILLETTA_r_0.0445341_COIL_kr_1.4848_COIL_kw_5.8583_FUNZ_freq_6066_FUNZ_I_eff_61.5962.mph
% Version:            COMSOL 5.6.0.401
% Date:               Jan 27 2022, 13:41
% Table:              Tabella delle sonde 1 - 
% Tempo (s)                                       Temperatura (degC), Punto: (0, 0.5)               Temperatura (degC), Punto: (0.5*BILLETTA_r, 0.5)  Temperatura (degC), Punto: (BILLETTA_r-10*FUNZ_depth_billetta, 0.5)Temperatura (degC), Punto: (BILLETTA_r-5*FUNZ_depth_billetta, 0.5)Temperatura (degC), Punto: (BILLETTA_r-2*FUNZ_depth_billetta, 0.5)Temperatura (degC), Punto: (BILLETTA_r-FUNZ_depth_billetta, 0.5)Temperatura (degC), Punto: (BILLETTA_r-0.01[mm], 0.5)
0                                                 20                                                20                                                20.000000000022737                                20.0001060912075                                  20.14157452431425                                 20.332319181971343                                20.530117220601767
5                                                 20.62656829380228                                 33.8376676130639                                  321.21540384094305                                377.77176043579504                                412.1315984147884                                 419.7681019116085                                 422.7226012531262
10                                                30.19000777050144                                 90.57275570964543                                 580.6980678780275                                 661.9223756162284                                 704.8465019532484                                 713.7050321371921                                 716.9033816824889
15                                                60.68919806505795                                 169.50500405431546                                789.0260746348059                                 904.4831740664728                                 963.1118675806125                                 973.0848253479647                                 976.0984256993848
20                                                112.45585529246455                                252.7274639390397                                 960.1629507083247                                 1052.0534149089854                                1080.657515222109                                 1084.1905599348474                                1084.5007067185347
25                                                175.56639556235967                                331.5583958133053                                 1022.0780227315114                                1075.9617396891504                                1090.1338262630134                                1091.4478009409831                                1090.9868077539713
30                                                240.56929624223426                                402.28872752648044                                1047.9691874747468                                1087.0543306401842                                1096.8148883156932                                1097.467986553072                                 1096.7701063137497
35                                                302.6006797394348                                 463.8832701253567                                 1062.9698987426445                                1091.1526451526674                                1098.0114884292198                                1098.2667559353954                                1097.4376492875876
40                                                359.8842727418397                                 517.0031823861235                                 1078.4614870889022                                1101.763417681565                                 1106.7307931855448                                1106.6589493444599                                1105.6965761035917
45                                                411.9194232305739                                 562.8410487585638                                 1091.5517868333413                                1113.203058762388                                 1117.1295263674697                                1116.8428191958346                                1115.7803321129904
50                                                458.89017349674236                                603.545549745274                                  1101.3549300086415                                1119.4082704655489                                1122.234806344945                                 1121.7743305350946                                1120.6424089570046
55                                                500.88173121818613                                639.1724666152417                                 1108.1101430624735                                1120.98108035313                                  1122.689797741216                                 1122.0963878221219                                1120.9235386031824
60                                                539.2610349396369                                 671.1985318617416                                 1115.2516189758253                                1125.4775468971056                                1126.4266161671312                                1125.7169651596569                                1124.4975421591384
65                                                573.6249700617979                                 699.253257009358                                  1121.6715388167127                                1130.282197050562                                 1130.6868991515594                                1129.885047116029                                 1128.6250301315063
70                                                604.7244344088035                                 724.8477493083775                                 1128.2328575440206                                1135.3772148615867                                1135.3149889602423                                1134.4341652134258                                1133.1375057173245
75                                                632.3664479088006                                 747.8169350347814                                 1134.6341110051576                                1140.7296420427847                                1140.315961612965                                 1139.371890561862                                 1138.042938277471
80                                                657.1377359009344                                 771.1469264306421                                 1140.905263764917                                 1146.0220426546189                                1145.2857729222828                                1144.2834414522572                                1142.9239664737006
85                                                678.9418850856445                                 794.0165101568174                                 1147.0870644591632                                1151.4010150896652                                1150.395820272633                                 1149.343047550145                                 1147.9553342112372
90                                                698.513483968024                                  818.06635151737                                   1153.506935676376                                 1157.068557087251                                 1155.8067415834807                                1154.7046813860056                                1153.28835774428
95                                                715.5808868685667                                 842.6897439843952                                 1160.043798838663                                 1162.9499712994361                                1161.4591340783245                                1160.3114049974597                                1158.8670813827962
100                                               730.1440937872729                                 867.8866875578927                                 1166.697653946023                                 1169.04525772622                                  1167.3529977571661                                1166.1632183845068                                1164.6915051267856
105                                               743.4927934676632                                 893.0430214160205                                 1173.543695159341                                 1175.4148577269839                                1173.5439464503033                                1172.3148628436775                                1170.81592077485
110                                               759.7168552818922                                 916.2111147467309                                 1180.8203786930412                                1182.2504433356112                                1180.20834309984                                  1178.9399343322857                                1177.4124988335325
115                                               775.8900236307358                                 938.7844755206653                                 1188.3570918039932                                1189.4148753646782                                1187.220002001572                                 1185.914226892667                                 1184.3580532391843
120                                               792.0122985141942                                 960.763103737822                                  1196.1538344921973                                1196.908153814185                                 1194.5789231555004                                1193.2377405248208                                1191.6525839918054
125                                               816.1969708383223                                 981.2088023522732                                 1204.822886293301                                 1205.2997402560895                                1202.8420386326693                                1201.4654813917869                                1199.850296362652
130                                               843.6873369010599                                 1001.1851657818617                                1213.7796609389525                                1213.9715414920947                                1211.3829223009698                                1209.970487982759                                 1208.3249119334318
135                                               871.1777029637973                                 1021.1615292114503                                1222.736435584604                                 1222.6433427281                                   1219.9238059692702                                1218.4754945737313                                1216.7995275042113
140                                               898.5316250682444                                 1040.8580768060942                                1231.7990632332062                                1231.4250363632254                                1228.5751838298356                                1227.0908647954184                                1225.3842128172973
145                                               925.2142410337862                                 1059.1779266699264                                1241.3824891025038                                1240.7474021033863                                1237.7701946259308                                1236.2492255880275                                1234.5104427663173
150                                               951.896856999328                                  1077.4977765337585                                1250.9659149718013                                1250.0697678435472                                1246.965205422026                                 1245.4075863806365                                1243.6366727153372
155                                               978.57947296487                                   1095.8176263975906                                1260.549340841099                                 1259.392133583708                                 1256.1602162181211                                1254.5659471732451                                1252.7629026643576
160                                               1002.032466190907                                 1112.672370193503                                 1270.0054970747128                                1268.6005970005317                                1265.244772588292                                 1263.6141072559803                                1261.7786984011295
165                                               1023.5706250363068                                1128.658456658075                                 1279.3861954936915                                1277.7415280452024                                1274.263840835139                                 1272.5969296429344                                1270.7290179992106
170                                               1045.1087838817066                                1144.644543122647                                 1288.7668939126702                                1286.882459089873                                 1283.2829090819864                                1281.5797520298893                                1279.6793375972916
175                                               1066.6469427271063                                1160.6306295872196                                1298.1475923316484                                1296.0233901345437                                1292.3019773288333                                1290.5625744168433                                1288.6296571953726
180                                               1088.185101572506                                 1176.6167160517916                                1307.5282907506275                                1305.1643211792143                                1301.3210455756807                                1299.5453968037978                                1297.5799767934532
185                                               1107.3128122606317                                1191.3069644112084                                1316.5263195041375                                1313.9365839414986                                1309.9764792380543                                1308.1655553453252                                1306.1681828115438
190                                               1125.0113749099369                                1205.228913945768                                 1325.2974644724604                                1322.4902642998609                                1318.4163149620613                                1316.5706914969796                                1314.541692690615
195                                               1142.7099375592425                                1219.1508634803276                                1334.0686094407838                                1331.0439446582222                                1326.8561506860683                                1324.9758276486332                                1322.9152025696858
200                                               1160.408500208548                                 1233.0728130148873                                1342.8397544091072                                1339.597625016584                                 1335.2959864100753                                1333.3809638002872                                1331.288712448757
205                                               1178.1070628578532                                1246.994762549447                                 1351.61089937743                                  1348.1513053749463                                1343.735822134082                                 1341.7860999519412                                1339.6622223278282
210                                               1193.589467876177                                 1259.3617130265743                                1359.0638860382574                                1355.4150405422042                                1350.9020731275027                                1348.9224863919067                                1346.7711854147806
215                                               1207.7579191708023                                1270.8067088677585                                1365.7353402880562                                1361.9139707770323                                1357.313219260237                                 1355.3066346405049                                1353.1304022097434
220                                               1221.9263704654277                                1282.2517047089432                                1372.4067945378551                                1368.4129010118595                                1363.7243653929713                                1361.690782889103                                 1359.4896190047057
225                                               1236.0948217600526                                1293.6967005501278                                1379.0782487876545                                1374.9118312466871                                1370.135511525706                                 1368.0749311377008                                1365.848835799668
230                                               1250.2632730546775                                1305.1416963913125                                1385.7497030374534                                1381.4107614815152                                1376.5466576584404                                1374.459079386299                                 1372.2080525946308
231.86106554678068                                1255.536956365811                                 1309.4016738799282                                1388.2329057676984                                1383.8297485117087                                1378.9329702950427                                1376.8353430565007                                1374.5750364509536
