% Model:              batchmodel_BILLETTA_r_0.0445341_COIL_kr_1.4848_COIL_kw_3.7744_FUNZ_freq_6066_FUNZ_I_eff_85.0125.mph
% Version:            COMSOL 5.6.0.401
% Date:               Jan 27 2022, 12:40
% Table:              Tabella delle sonde 1 - 
% Tempo (s)                                       Temperatura (degC), Punto: (0, 0.5)               Temperatura (degC), Punto: (0.5*BILLETTA_r, 0.5)  Temperatura (degC), Punto: (BILLETTA_r-10*FUNZ_depth_billetta, 0.5)Temperatura (degC), Punto: (BILLETTA_r-5*FUNZ_depth_billetta, 0.5)Temperatura (degC), Punto: (BILLETTA_r-2*FUNZ_depth_billetta, 0.5)Temperatura (degC), Punto: (BILLETTA_r-FUNZ_depth_billetta, 0.5)Temperatura (degC), Punto: (BILLETTA_r-0.01[mm], 0.5)
0                                                 20                                                20.000000000000057                                20.000000000162743                                20.000952170245796                                20.259680396180215                                20.517834353261833                                20.765921785600028
5                                                 20.714767618277165                                41.8162039348328                                  596.7889955679652                                 726.0138061064014                                 798.2935089797771                                 812.1861138091389                                 817.0235374869368
10                                                34.478390903547904                                129.1304522544482                                 979.565566783844                                  1098.47681591038                                  1129.3524835935623                                1132.6908720511829                                1132.7718693973748
15                                                80.25453296184719                                 234.201624040755                                  1080.1526744419525                                1127.7773953277456                                1138.9092990525337                                1139.6138894101327                                1138.8319481116328
20                                                149.12672289215317                                328.3656906814773                                 1115.963187145162                                 1148.366879263545                                 1154.9988531187682                                1155.0185584396945                                1153.9743249315152
25                                                223.94588236749132                                409.5318633731504                                 1136.4639450723366                                1159.1130774897129                                1163.0967852021754                                1162.729580042766                                 1161.5401954676795
30                                                295.1369950191064                                 479.11329517934996                                1152.02698981313                                  1168.9103026394564                                1171.295862996672                                 1170.6875646651602                                1169.4003911294967
35                                                359.8670581699747                                 538.9598975479902                                 1165.979217643036                                 1179.1117925228332                                1180.4422786790483                                1179.6670775450057                                1178.3040884407014
40                                                418.16577202378426                                590.5774520579006                                 1178.7882050280427                                1189.5606768073703                                1190.2015229719327                                1189.3088743536173                                1187.8845620226316
45                                                470.02482172976727                                635.7210409675095                                 1191.6991191478473                                1200.7524958855442                                1200.8710610203616                                1199.8825917219629                                1198.4016302735781
50                                                516.4375813713966                                 675.7031508729025                                 1205.1718228089753                                1212.9860617182403                                1212.7119015849062                                1211.6451980118377                                1210.1127276656516
55                                                558.2812273548035                                 712.6051555670779                                 1219.9303041556013                                1226.8094703825163                                1226.2193754634463                                1225.0828788173053                                1223.4991757358466
60                                                596.3413592877469                                 748.536290524475                                  1236.66615422718                                  1242.8000055645812                                1241.9307630492808                                1240.7245622052483                                1239.0841044877716
65                                                630.3729737835984                                 782.8651017839978                                 1255.1683295841303                                1260.7869180488742                                1259.6885704526876                                1258.4153417109478                                1256.714260722853
70                                                660.7115590569922                                 821.1927421789259                                 1274.8646057215856                                1279.9629565286277                                1278.6175301184398                                1277.2705717766357                                1275.5024876351144
75                                                687.2179764049881                                 861.196217618268                                  1295.9923041665752                                1300.66291637033                                  1299.0806461314728                                1297.6571458730823                                1295.8167201978385
80                                                710.3164544894976                                 901.9172602181856                                 1317.9705660484133                                1322.2220463289627                                1320.3947574715799                                1318.8906900747234                                1316.9735745927628
85                                                730.6999448915245                                 941.923870402995                                  1339.84822836506                                  1343.5486150479278                                1341.436941169352                                 1339.846123762407                                 1337.849518439115
90                                                747.9532454869069                                 982.0740724299791                                 1362.195208134814                                 1365.2967651696554                                1362.8800292305891                                1361.1975717606242                                1359.117748889264
90.84229477465766                                 750.5516493028235                                 988.8518656243365                                 1366.0059466003245                                1369.0019272990698                                1366.531765917041                                 1364.8333895852397                                1362.7391810966965
