% Model:              batchmodel_BILLETTA_r_0.0335556_COIL_kr_1.4848_COIL_kw_3.7744_FUNZ_freq_7167.5_FUNZ_I_eff_61.5962.mph
% Version:            COMSOL 5.6.0.280
% Date:               Jan 27 2022, 16:25
% Table:              Tabella delle sonde 1 - 
% Tempo (s)                                       Temperatura (degC), Punto: (0, 0.5)               Temperatura (degC), Punto: (0.5*BILLETTA_r, 0.5)  Temperatura (degC), Punto: (BILLETTA_r-10*FUNZ_depth_billetta, 0.5)Temperatura (degC), Punto: (BILLETTA_r-5*FUNZ_depth_billetta, 0.5)Temperatura (degC), Punto: (BILLETTA_r-2*FUNZ_depth_billetta, 0.5)Temperatura (degC), Punto: (BILLETTA_r-FUNZ_depth_billetta, 0.5)Temperatura (degC), Punto: (BILLETTA_r-0.01[mm], 0.5)
0                                                 20                                                19.999999999999943                                20.000000000012392                                20.000050851955223                                20.085886524542843                                20.268596537645465                                20.456570257858687
5                                                 23.654773841698386                                61.242920173594825                                387.466387731046                                  452.6408001181527                                 489.7274620102655                                 497.6525352442369                                 500.6746056606098
10                                                71.56851114610953                                 182.54959482844708                                716.0922437717087                                 827.0639331786709                                 883.9726509847384                                 894.4193146051724                                 897.8255348405827
15                                                169.09844443439857                                316.323236986099                                  956.4030517343941                                 1051.6427201153338                                1081.5708234891313                                1085.2502070779678                                1085.6666967563697
20                                                277.40493598990975                                434.35819677938184                                1028.772818934881                                 1079.8370722147179                                1093.1357777865032                                1094.3684525000126                                1093.9488240444225
25                                                375.4791105078059                                 528.8823987137331                                 1062.6463308633815                                1094.659707512451                                 1102.3058961982233                                1102.6921649548126                                1101.9704429156782
30                                                459.95340470897474                                604.3340836745184                                 1082.7901265032656                                1104.7037660737842                                1109.3365198464344                                1109.269648440903                                 1108.382771985936
35                                                531.1625020247504                                 665.0983491701967                                 1098.7050115781408                                1114.6708780669387                                1117.473795334431                                 1117.1192214534894                                1116.1194537261817
40                                                591.4556137197964                                 714.8865613818532                                 1111.5110058192495                                1123.2598544864131                                1124.7748029841719                                1124.2157530766967                                1123.132844937787
45                                                641.300351443995                                  757.5456531305598                                 1122.1207424697345                                1131.1386140319864                                1131.81018219397                                  1131.1128400289413                                1129.9694775339972
50                                                681.5214754306674                                 797.2697061312789                                 1131.7043859584633                                1138.7456933669241                                1138.7944822379768                                1137.9916919923257                                1136.7989530879754
55                                                712.6087590279932                                 838.2529172581479                                 1141.1626893471612                                1146.5963071528276                                1146.128716063292                                 1145.235594568696                                 1143.9977594176798
60                                                736.8858648430254                                 878.2902581916713                                 1150.7038617847338                                1154.8789722434894                                1153.9951460797165                                1153.025481060084                                 1151.745979231116
65                                                757.3457720846608                                 916.656056853286                                  1160.664343210533                                 1163.825286930271                                 1162.5935283022259                                1161.555981446439                                 1160.2360792090526
70                                                782.3747194839094                                 952.1122326931255                                 1171.3024227485507                                1173.645450506625                                 1172.1187945246947                                1171.019372608955                                 1169.6589722649696
75                                                816.2617919283144                                 985.5496322587327                                 1182.7520590882991                                1184.4322620998223                                1182.6512385507885                                1181.4939005049614                                1180.0919690725955
80                                                860.4037817993923                                 1017.3211799822599                                1195.129456722862                                 1196.2636075226924                                1194.2577462484737                                1193.0448636242809                                1191.5998362358646
85                                                910.5894698906135                                 1048.0216605061537                                1208.5500862582148                                1209.1987836489966                                1206.9832655314317                                1205.7157309975369                                1204.226142830843
90                                                960.1077219669786                                 1077.5790456817467                                1222.8814377356493                                1223.0815685457674                                1220.6649710750912                                1219.3433521294596                                1217.808666088446
95                                                1003.1049662604997                                1104.962750113511                                 1238.0943329855736                                1237.8795106445637                                1235.2681217051781                                1233.8921888923364                                1232.3111024370723
100                                               1037.4451372283634                                1130.0372964845574                                1253.5774557891045                                1252.966673187847                                 1250.162602954892                                 1248.7313402419627                                1247.1019862203584
105                                               1071.785308196227                                 1155.1118428556042                                1269.060578592636                                 1268.0538357311302                                1265.0570842046054                                1263.570491591588                                 1261.8928700036445
110                                               1103.5598618954964                                1179.0574648181841                                1284.36266441019                                  1282.9757231315966                                1279.790629534537                                 1278.2491444055563                                1276.523137322567
115                                               1131.6104812707595                                1201.3644790252893                                1299.4019792157746                                1297.657717472106                                 1294.290580086722                                 1292.6948372947518                                1290.920273545918
120                                               1159.661100646023                                 1223.6714932323948                                1314.4412940213588                                1312.3397118126154                                1308.7905306389066                                1307.1405301839472                                1305.3174097692695
125                                               1184.9632050754985                                1244.3704724725403                                1328.8969765093902                                1326.4586266186648                                1322.735017971058                                 1321.0322635866355                                1319.1614611680016
130                                               1209.392213956487                                 1264.5586419848305                                1343.1672618689872                                1340.3986731104878                                1336.5030563937717                                1334.7480257571306                                1332.8298191803647
135                                               1232.993541491584                                 1284.0483648617528                                1356.7581942753018                                1353.673206384231                                 1349.6135306633537                                1347.808597691028                                 1345.8450937382995
140                                               1249.8929665885344                                1297.8826247616198                                1364.8482690912315                                1361.5589451889332                                1357.3995756426257                                1355.563962414562                                 1353.5722201251097
145                                               1266.7923916854847                                1311.7168846614873                                1372.9383439071607                                1369.4446839936354                                1365.1856206218977                                1363.3193271380965                                1361.2993465119202
150                                               1283.6918167824351                                1325.5511445613538                                1381.02841872309                                  1377.3304227983372                                1372.9716656011692                                1371.0746918616305                                1369.0264728987308
155                                               1300.591241879385                                 1339.3854044612208                                1389.1184935390197                                1385.2161616030398                                1380.7577105804412                                1378.8300565851655                                1376.7535992855414
159.45038041302752                                1315.6330159679637                                1351.6989483186408                                1396.3192756391672                                1392.235069106779                                 1387.6878829945817                                1385.7329212374657                                1383.6313296697112
