% Model:              batchmodel_BILLETTA_r_0.0257427_COIL_kr_2.4069_COIL_kw_5.8583_FUNZ_freq_6066_FUNZ_I_eff_85.0125.mph
% Version:            COMSOL 5.6.0.280
% Date:               Jan 27 2022, 15:06
% Table:              Tabella delle sonde 1 - 
% Tempo (s)                                       Temperatura (degC), Punto: (0, 0.5)               Temperatura (degC), Punto: (0.5*BILLETTA_r, 0.5)  Temperatura (degC), Punto: (BILLETTA_r-10*FUNZ_depth_billetta, 0.5)Temperatura (degC), Punto: (BILLETTA_r-5*FUNZ_depth_billetta, 0.5)Temperatura (degC), Punto: (BILLETTA_r-2*FUNZ_depth_billetta, 0.5)Temperatura (degC), Punto: (BILLETTA_r-FUNZ_depth_billetta, 0.5)Temperatura (degC), Punto: (BILLETTA_r-0.01[mm], 0.5)
0                                                 20                                                19.999999999999943                                20.000000000168654                                20.000968795251026                                20.259953484354753                                20.518787777709008                                20.766169997194822
5                                                 60.99119390780095                                 162.37686546880224                                638.9022823998029                                 780.2497954906124                                 859.717914429813                                  874.4596156633362                                 879.3839233313764
10                                                233.21666538246387                                398.46160320877834                                1030.5253678109452                                1115.4106904604073                                1135.781418479114                                 1137.7211406038923                                1137.3440961626188
15                                                410.97804922701187                                575.9553556470223                                 1112.6202997695364                                1146.4389390625956                                1153.2083911566083                                1153.230771140521                                 1152.188513581551
20                                                547.3268447695788                                 696.9466973102429                                 1142.5524587858017                                1160.622070603994                                 1163.2317871897535                                1162.6600961593917                                1161.4016612599153
25                                                648.5774035316422                                 792.9450097923947                                 1165.9935255127566                                1176.9558065311421                                1177.613550850494                                 1176.741062604539                                 1175.35137612757
30                                                718.4519072156734                                 891.8780566347585                                 1189.5424666691174                                1196.7258411338626                                1196.2881158985251                                1195.2246370368835                                1193.7292341564125
35                                                774.578625100274                                  983.3475373152565                                 1215.860864530779                                 1221.1689459671875                                1220.113562329917                                 1218.9166136291842                                1217.3247148950286
40                                                868.1833722367138                                 1060.9174736443347                                1249.0287408556592                                1253.271905148431                                 1251.7650141244549                                1250.4426789962672                                1248.7414860217973
45                                                976.6668645311996                                 1130.4580426066927                                1287.6797205836406                                1290.8971122253256                                1288.8937725701462                                1287.424468085591                                 1285.5911384146889
50                                                1072.1903626615854                                1194.1495322654637                                1329.1302381163118                                1331.1813349499012                                1328.6041941856647                                1326.9671410111587                                1324.9848432908016
55                                                1152.7527454675733                                1252.6463148680227                                1367.0217470328157                                1367.701268498623                                 1364.534251248741                                 1362.7351466449227                                1360.6116679718452
56.39826316446861                                 1174.1272131569958                                1268.5521027762393                                1377.1190646935124                                1377.3967656493087                                1374.0658650655096                                1372.2228596643718                                1370.0613846763436
