% Model:              batchmodel_BILLETTA_r_0.0445341_COIL_kr_2.7711_COIL_kw_4.5299_FUNZ_freq_2540.9_FUNZ_I_eff_174.7421.mph
% Version:            COMSOL 5.6.0.401
% Date:               Jan 27 2022, 19:34
% Table:              Tabella delle sonde 1 - 
% Tempo (s)                                       Temperatura (degC), Punto: (0, 0.5)               Temperatura (degC), Punto: (0.5*BILLETTA_r, 0.5)  Temperatura (degC), Punto: (BILLETTA_r-10*FUNZ_depth_billetta, 0.5)Temperatura (degC), Punto: (BILLETTA_r-5*FUNZ_depth_billetta, 0.5)Temperatura (degC), Punto: (BILLETTA_r-2*FUNZ_depth_billetta, 0.5)Temperatura (degC), Punto: (BILLETTA_r-FUNZ_depth_billetta, 0.5)Temperatura (degC), Punto: (BILLETTA_r-0.01[mm], 0.5)
0                                                 20                                                20                                                20.000000009228472                                20.036179588113555                                20.355335459193157                                20.55178098188327                                 20.750631484117207
5                                                 21.10688525268995                                 60.2848867187227                                  929.8992719567383                                 1193.4602807887231                                1259.9016185629189                                1267.2957974839278                                1267.6755486662232
10                                                48.15386904676484                                 191.6274196891664                                 1290.0797011955906                                1371.757709444616                                 1387.5742447872003                                1387.6299254937521                                1385.1471093078476
11.440796018853023                                63.798553262379244                                231.7586015537173                                 1325.912494541003                                 1388.7638697004095                                1399.5529042351573                                1398.891867271242                                 1396.128322557268
