% Model:              batchmodel_BILLETTA_r_0.0257427_COIL_kr_1.4848_COIL_kw_5.8583_FUNZ_freq_6066_FUNZ_I_eff_162.3068.mph
% Version:            COMSOL 5.6.0.280
% Date:               Jan 27 2022, 12:26
% Table:              Tabella delle sonde 1 - 
% Tempo (s)                                       Temperatura (degC), Punto: (0, 0.5)               Temperatura (degC), Punto: (0.5*BILLETTA_r, 0.5)  Temperatura (degC), Punto: (BILLETTA_r-10*FUNZ_depth_billetta, 0.5)Temperatura (degC), Punto: (BILLETTA_r-5*FUNZ_depth_billetta, 0.5)Temperatura (degC), Punto: (BILLETTA_r-2*FUNZ_depth_billetta, 0.5)Temperatura (degC), Punto: (BILLETTA_r-FUNZ_depth_billetta, 0.5)Temperatura (degC), Punto: (BILLETTA_r-0.01[mm], 0.5)
0                                                 19.999999999999943                                19.999999999999943                                20.000000025441352                                20.068072416219195                                20.759622990842615                                21.194995934398946                                21.579333904975954
5                                                 106.79147170862194                                296.9935415722009                                 1289.0379199301024                                1359.0021335941997                                1374.0171400772033                                1374.7490597359847                                1373.435870529016
6.720884361908645                                 191.66970922528884                                418.48498539707987                                1351.5973666781938                                1392.5954782351773                                1400.0772895373916                                1399.7354668069447                                1398.008217882565
