% Model:              batchmodel_BILLETTA_r_0.0542379_COIL_kr_2.4069_COIL_kw_5.3284_FUNZ_freq_6066_FUNZ_I_eff_61.5962.mph
% Version:            COMSOL 5.6.0.401
% Date:               Jan 28 2022, 03:22
% Table:              Tabella delle sonde 1 - 
% Tempo (s)                                       Temperatura (degC), Punto: (0, 0.5)               Temperatura (degC), Punto: (0.5*BILLETTA_r, 0.5)  Temperatura (degC), Punto: (BILLETTA_r-10*FUNZ_depth_billetta, 0.5)Temperatura (degC), Punto: (BILLETTA_r-5*FUNZ_depth_billetta, 0.5)Temperatura (degC), Punto: (BILLETTA_r-2*FUNZ_depth_billetta, 0.5)Temperatura (degC), Punto: (BILLETTA_r-FUNZ_depth_billetta, 0.5)Temperatura (degC), Punto: (BILLETTA_r-0.01[mm], 0.5)
0                                                 20                                                20.000000000000057                                20.000000000021714                                20.000101840019283                                20.14081221756942                                 20.333399572418216                                20.533700995790525
5                                                 20.066253104696045                                24.435354296160313                                299.2687071911472                                 351.98290399070913                                385.5567634253316                                 392.855576567502                                  395.61507645278414
10                                                22.561153598024134                                54.12622546753869                                 537.1603619104217                                 613.7205565636543                                 653.8422749497182                                 661.9325411070499                                 664.9508214508569
15                                                34.14050305066576                                 105.25416260429171                                750.106034044812                                  865.6961982036988                                 923.0718085924196                                 933.2950972350865                                 936.4844922857566
20                                                58.193229516115935                                165.09050808213487                                925.8419408069786                                 1030.7257261386753                                1068.0572097420545                                1073.2400472803042                                1074.1777333982877
25                                                91.52464793699932                                 226.0197340296267                                 999.8229902792092                                 1066.5027612634212                                1085.2128367000264                                1087.2477556085719                                1087.0451819837763
30                                                131.75909788122982                                284.4695113940637                                 1038.410807150336                                 1085.0473253062291                                1096.9025924692128                                1097.877465846599                                 1097.288488349945
35                                                175.93623387032187                                338.5897047227453                                 1059.3294609478226                                1094.0915193313645                                1102.3791047259615                                1102.7927797964521                                1102.0004181749055
40                                                221.22445260401474                                387.97067278564714                                1070.2833933619877                                1097.7883868316312                                1104.044333481405                                 1104.1685735641904                                1103.2778389433324
45                                                265.77324824160667                                432.5629100105109                                 1079.4019723408187                                1102.5248873707214                                1107.4619260180598                                1107.386283063026                                 1106.4213004320304
50                                                308.04516167527333                                472.9452362795496                                 1087.9927406900742                                1107.5572262368537                                1111.3999594870465                                1111.1537593023886                                1110.1229323770108
55                                                347.8913544213633                                 509.2062284862575                                 1096.0931970264432                                1112.8013232405588                                1115.7364277654578                                1115.3436393299276                                1114.253831219843
60                                                385.0609403233965                                 542.2452445116224                                 1103.1280988834123                                1117.4250658468459                                1119.6051582804162                                1119.0909678924327                                1117.95184137964
65                                                419.66515662012944                                571.8475187600129                                 1109.2925263369584                                1121.704211348489                                 1123.2923232910416                                1122.6814717381703                                1121.5017561671689
70                                                452.19669422320715                                599.8662295143743                                 1115.35721890602                                  1126.0179201552746                                1127.0561364696682                                1126.3553068062374                                1125.1371194053559
75                                                482.49223767316425                                625.6847930336381                                 1121.066771032608                                 1130.2411998423918                                1130.8118333400553                                1130.033707518543                                 1128.78135930817
80                                                510.55178697000076                                649.3032093178047                                 1126.4211827167233                                1134.37405040984                                  1134.5594139022014                                1133.716673875088                                 1132.4344758756106
85                                                536.5215540813341                                 670.9059643468715                                 1131.4933711279455                                1138.4517567971984                                1138.3216235427076                                1137.4248792408112                                1136.11637458232
90                                                561.1929514373421                                 691.4916391545407                                 1136.6780204724914                                1142.665308430549                                 1142.2215779133116                                1141.270223881152                                 1139.9347992766116
95                                                584.0429406379923                                 710.4002792009861                                 1141.7142869881632                                1146.888481864276                                 1146.1779108248452                                1145.1787537696537                                1143.8185428762017
100                                               605.0715216832848                                 727.6318844862078                                 1146.6021706749611                                1151.121277098378                                 1150.1906222773086                                1149.150468906318                                 1147.767605381092
105                                               624.470538604936                                  743.9058632660815                                 1151.4269117085892                                1155.4048710557881                                1154.2875918032973                                1153.2112176454502                                1151.8070817287767
110                                               642.7128882681601                                 760.9955618676612                                 1156.3986277117856                                1159.840765136364                                 1158.5375426435103                                1157.4247163592122                                1155.9988311137704
115                                               659.4471768151136                                 777.5832658948624                                 1161.3611873005511                                1164.3535370417226                                1162.8894088542952                                1161.7436195406476                                1160.2968880357653
120                                               674.6734042457966                                 793.6689753476852                                 1166.3145904748858                                1168.9431867718645                                1167.3431904356516                                1166.167927189756                                 1164.7012524947618
125                                               688.4905998770122                                 809.8198477436559                                 1171.4293938282322                                1173.7329660294336                                1172.0076083860058                                1170.8039857625263                                1169.3172046031314
130                                               701.0195704050118                                 826.7277633073264                                 1176.913660783047                                 1178.873230602841                                 1177.0152923655137                                1175.7815281948306                                1174.2731764551982
135                                               712.1522422986648                                 843.7737667878126                                 1182.5812580415763                                1184.2294723771915                                1182.2475920331708                                1180.9844955518688                                1179.4542728475108
140                                               721.8886155579709                                 860.9578581851143                                 1188.43218560382                                  1189.8016913524843                                1187.7045073889785                                1186.4128878336414                                1184.8604937800687
145                                               731.1044809249254                                 877.9697374252988                                 1194.5239639228262                                1195.6310999500515                                1193.422642475597                                 1192.1027398879173                                1190.5278063931669
150                                               740.2653899157883                                 894.6444556650086                                 1200.8871696339138                                1201.7396058064087                                1199.4214552145881                                1198.073207064499                                 1196.4753300447728
155                                               748.7758912389334                                 911.1929863376857                                 1207.4826945044642                                1208.0991885414169                                1205.6760584686062                                1204.299789222408                                 1202.6786106283075
160                                               756.6359848943604                                 927.6153294433299                                 1214.3105385344775                                1214.709848155076                                 1212.1864522376532                                1210.782486361643                                 1209.1376481437705
165                                               766.082685249677                                  943.6509731993402                                 1221.2795519987972                                1221.4673630570987                                1218.844857153009                                 1217.4132427462227                                1215.744657913419
170                                               777.3263973695501                                 959.2754148581004                                 1228.381161700895                                 1228.361930561029                                 1225.6411358971081                                1224.181895064528                                 1222.4895021203379
175                                               789.4347864297487                                 974.5972295859382                                 1235.6533566962762                                1235.4369877674358                                1232.6202083686535                                1231.1334783986167                                1229.4171028759074
180                                               802.4078524302728                                 989.6164173828537                                 1243.096136984941                                 1242.6925346763187                                1239.7820745676454                                1238.26799274849                                  1236.527460180128
185                                               817.8994909526454                                 1004.4929600438719                                1250.5189495138916                                1249.925649688434                                 1246.920285337283                                 1245.3784632157003                                1243.613399186434
190                                               835.5638860083719                                 1019.1934066890195                                1257.9616373621707                                1257.1787620443051                                1254.0780075014159                                1252.5081665523599                                1250.7182384544462
195                                               855.0153287655934                                 1033.680447592115                                 1265.4686398500717                                1264.499195561637                                 1261.3033875476444                                1259.7053718554994                                1257.8902937115622
200                                               876.2538192243106                                 1047.9540827531587                                1273.0399569775946                                1271.88695024043                                  1268.5964254759679                                1266.970079125119                                 1265.1295649577814
205                                               897.4488739586722                                 1062.204158481115                                 1280.4822036016167                                1279.141873808248                                 1275.7556848089198                                1274.1008643667724                                1272.2348349121116
210                                               919.3909889631565                                 1076.3486894683424                                1287.8788932786515                                1286.3504022127818                                1282.8681560793452                                1281.1847127225014                                1279.2929994471933
215                                               942.2583200830396                                 1090.3691985032092                                1295.248847645185                                 1293.5320157163364                                1289.9534445376426                                1288.241228227765                                 1286.3236424796437
220                                               966.0249961346057                                 1104.2652360487427                                1302.5915612121403                                1300.6862325190032                                1297.011080089686                                 1295.2699444529048                                1293.3263011216736
225                                               987.405273384354                                  1117.9797091127484                                1309.8428348463049                                1307.7518621066984                                1303.9813589027603                                1302.2116229669923                                1300.242186774149
230                                               1008.348562869162                                 1131.5464906074617                                1317.0407574885671                                1314.7652084255546                                1310.8997028843182                                1309.1014095575342                                1307.1061783422106
235                                               1028.85486458903                                  1144.9655805328835                                1324.185329138928                                 1321.7262714755716                                1317.7661120343582                                1315.9393042245301                                1313.9182758258576
240                                               1048.503252753564                                 1158.1124881466117                                1331.2286182751373                                1328.5885935957826                                1324.5348654682084                                1322.6797930609046                                1320.6331425815338
245                                               1065.1234450830739                                1170.3557592390057                                1337.9255183441883                                1335.1149284738522                                1330.9727507947582                                1329.090827936404                                 1327.0197495637008
250                                               1081.7436374125837                                1182.5990303314002                                1344.6224184132393                                1341.6412633519208                                1337.410636121308                                 1335.5018628119028                                1333.4063565458682
