% Model:              batchmodel_BILLETTA_r_0.0257427_COIL_kr_2.4069_COIL_kw_5.3284_FUNZ_freq_6066_FUNZ_I_eff_174.7421.mph
% Version:            COMSOL 5.6.0.280
% Date:               Jan 27 2022, 14:57
% Table:              Tabella delle sonde 1 - 
% Tempo (s)                                       Temperatura (degC), Punto: (0, 0.5)               Temperatura (degC), Punto: (0.5*BILLETTA_r, 0.5)  Temperatura (degC), Punto: (BILLETTA_r-10*FUNZ_depth_billetta, 0.5)Temperatura (degC), Punto: (BILLETTA_r-5*FUNZ_depth_billetta, 0.5)Temperatura (degC), Punto: (BILLETTA_r-2*FUNZ_depth_billetta, 0.5)Temperatura (degC), Punto: (BILLETTA_r-FUNZ_depth_billetta, 0.5)Temperatura (degC), Punto: (BILLETTA_r-0.01[mm], 0.5)
0                                                 19.999999999999943                                19.999999999999943                                20.00000004535252                                 20.092129304747004                                20.852053042193234                                21.315845144838534                                21.724915336480876
3.337454963492549                                 39.62976432535726                                 178.32250551996464                                1244.9593139388548                                1360.3346201270942                                1386.0506021367082                                1388.1863664687335                                1387.302182162966
