% Model:              batchmodel_BILLETTA_r_0.0335556_COIL_kr_2.4069_COIL_kw_3.2356_FUNZ_freq_6066_FUNZ_I_eff_85.0125.mph
% Version:            COMSOL 5.6.0.280
% Date:               Jan 27 2022, 19:16
% Table:              Tabella delle sonde 1 - 
% Tempo (s)                                       Temperatura (degC), Punto: (0, 0.5)               Temperatura (degC), Punto: (0.5*BILLETTA_r, 0.5)  Temperatura (degC), Punto: (BILLETTA_r-10*FUNZ_depth_billetta, 0.5)Temperatura (degC), Punto: (BILLETTA_r-5*FUNZ_depth_billetta, 0.5)Temperatura (degC), Punto: (BILLETTA_r-2*FUNZ_depth_billetta, 0.5)Temperatura (degC), Punto: (BILLETTA_r-FUNZ_depth_billetta, 0.5)Temperatura (degC), Punto: (BILLETTA_r-0.01[mm], 0.5)
0                                                 20                                                19.999999999999886                                20.000000000172406                                20.00100672721902                                 20.26060850560117                                 20.519269241915367                                20.767970088092397
5                                                 26.99711243236044                                 79.72430738295373                                 572.3902312237103                                 695.5632556308051                                 759.3538201083937                                 771.4146262644855                                 775.650650461222
10                                                93.34115025515956                                 237.6157669531048                                 987.8033006724785                                 1100.9695184907418                                1130.0798332923396                                1133.269015568961                                 1133.3166825810426
15                                                212.01188681334884                                387.3764503302086                                 1096.4678815915113                                1143.9676037024524                                1154.5184881361097                                1155.0731667495124                                1154.2032665205984
20                                                329.6989606734859                                 506.3480868647117                                 1127.7542533143946                                1154.2171397554198                                1159.137079720335                                 1158.9005105819233                                1157.7617107298001
25                                                430.92989691961304                                598.6621940396752                                 1147.827895874258                                 1165.3268692757165                                1167.8312647610455                                1167.2413085253665                                1165.9672867895447
30                                                515.6059929113628                                 672.6875672347455                                 1165.4081687312273                                1177.7759039246753                                1178.8585114281314                                1178.0474572631724                                1176.675678600839
35                                                586.3561280104252                                 735.4332899825886                                 1183.0472543848168                                1192.1380077152521                                1192.2721288531307                                1191.3005024197637                                1189.8450257648747
40                                                644.4439679942816                                 792.8072705136325                                 1201.1042895638943                                1208.3931742387772                                1207.966138665478                                 1206.8841944238643                                1205.3566617744814
45                                                691.0041572323468                                 854.8380757868039                                 1221.3827651552492                                1227.409066453848                                 1226.5535360442555                                1225.3759682838504                                1223.7775578865717
50                                                726.3938199130907                                 916.2506167443593                                 1244.1948191092697                                1249.3785118823776                                1248.1866654902883                                1246.919801800238                                 1245.245579021956
55                                                756.460793182939                                  974.9206136627519                                 1269.7944780625303                                1274.3424594810454                                1272.8440380771135                                1271.484231874345                                 1269.7246867948193
60                                                793.5256788728426                                 1029.4977865941705                                1298.0756368096577                                1302.0111503161552                                1300.183525010657                                 1298.7196478510928                                1296.8629637930694
65                                                853.6978635788904                                 1081.2982079969597                                1328.1454186287415                                1331.384189447409                                 1329.1801886684975                                1327.5994413453404                                1325.635324719297
70                                                927.078843352638                                  1131.074733713146                                 1357.710064362363                                 1360.0713449084715                                1357.4474944951062                                1355.7445126171428                                1353.6709877446083
75                                                1005.0851130916063                                1178.9118623592217                                1383.7347290115235                                1385.062325822878                                 1382.0078260424284                                1380.1892187709263                                1378.0159881435961
79.0099240526437                                  1063.2578006894191                                1215.6807253378397                                1399.3751032451883                                1399.82962362437                                  1396.460461709074                                 1394.5654150211026                                1392.329846818308
