% Model:              batchmodel_BILLETTA_r_0.0542379_COIL_kr_1.6756_COIL_kw_3.7744_FUNZ_freq_8940.8_FUNZ_I_eff_61.5962.mph
% Version:            COMSOL 5.6.0.401
% Date:               Jan 27 2022, 23:05
% Table:              Tabella delle sonde 1 - 
% Tempo (s)                                       Temperatura (degC), Punto: (0, 0.5)               Temperatura (degC), Punto: (0.5*BILLETTA_r, 0.5)  Temperatura (degC), Punto: (BILLETTA_r-10*FUNZ_depth_billetta, 0.5)Temperatura (degC), Punto: (BILLETTA_r-5*FUNZ_depth_billetta, 0.5)Temperatura (degC), Punto: (BILLETTA_r-2*FUNZ_depth_billetta, 0.5)Temperatura (degC), Punto: (BILLETTA_r-FUNZ_depth_billetta, 0.5)Temperatura (degC), Punto: (BILLETTA_r-0.01[mm], 0.5)
0                                                 20.000000000000057                                20                                                20.000000000084242                                20.00032661411018                                 20.213315203727007                                20.492228588112994                                20.76039248748532
5                                                 20.068434421785184                                26.176335231984183                                447.23957481690866                                519.8508432359016                                 560.6695094396107                                 569.0386134658801                                 572.1710706032729
10                                                23.456046445812092                                65.73759096811557                                 773.0608328005043                                 895.3853579567846                                 952.7137553406257                                 962.8457998217544                                 966.0574658462434
15                                                38.17370991630287                                 127.93406124105599                                969.4063042210506                                 1055.4783082607196                                1081.8152369706172                                1085.0788227867479                                1085.4558601149897
20                                                64.97564335951938                                 194.21375685007916                                1031.2958838707577                                1080.895923811781                                 1094.3129010332655                                1095.689895376027                                 1095.4172028011867
25                                                103.40417313823161                                257.63873422389975                                1061.242574491212                                 1095.0877765856244                                1103.5178685361443                                1104.0946649877424                                1103.529459379713
30                                                148.90740212283902                                316.002190338761                                  1074.120507620843                                 1099.8576815200959                                1106.0258633951962                                1106.2811705208974                                1105.6063804628516
35                                                197.45151666727145                                368.53792580505797                                1088.1560539536958                                1111.244387142859                                 1116.3503027980237                                1116.4207161827935                                1115.6643393491709
40                                                244.00306786506553                                415.89437330892554                                1099.492176798231                                 1118.4732573692208                                1122.31404078672                                  1122.1851072440627                                1121.3509499248062
45                                                288.2916945680722                                 458.3703656101653                                 1107.3372245155183                                1121.3511335279231                                1123.8388274834374                                1123.5131035462791                                1122.6109131299368
50                                                330.215639121767                                  496.53565753637145                                1111.308877604325                                 1121.8021086990739                                1123.3376691188832                                1122.8789604682747                                1121.9339924374885
55                                                369.4557394903852                                 531.5177322010386                                 1116.1947423267134                                1124.231026024309                                 1125.0724014178109                                1124.5116382772317                                1123.5298285892027
60                                                405.90544844159297                                563.7146051372621                                 1123.3968128374531                                1130.16181398019                                  1130.5741747424781                                1129.938688349007                                 1128.9217514980164
65                                                439.6321911313214                                 592.8744043930982                                 1132.0278800328451                                1138.630101058326                                 1138.8740474351016                                1138.1934465342415                                1137.1457684382144
70                                                471.0287712572939                                 619.5948728773083                                 1140.6545966055246                                1147.2514424554129                                1147.379098511536                                 1146.6612023763623                                1145.585044457915
75                                                500.4539756840925                                 644.4219889126622                                 1147.9677432450617                                1153.8478864879376                                1153.720954162161                                 1152.9536795634576                                1151.8493627313705
80                                                527.5936948190493                                 666.8777611190396                                 1155.113511144354                                 1160.326179426991                                 1159.973070820482                                 1159.1617587089704                                1158.0313027469579
85                                                552.8383814625704                                 687.6104280243294                                 1162.181536027178                                 1166.788689568275                                 1166.230985264362                                 1165.3790616223582                                1164.2235545017852
90                                                576.4659438797687                                 707.0813791856752                                 1169.2356169198442                                1173.308278459795                                 1172.5626966480208                                1171.6722244619887                                1170.4920909284665
95                                                598.2307411048375                                 724.8827959425423                                 1176.2193623565058                                1179.8205443428806                                1178.9081010450432                                1177.9823480429363                                1176.7785990621906
100                                               618.4362470275959                                 742.2073222042615                                 1183.4994265550563                                1186.68897819034                                  1185.6243727568576                                1184.6647588499131                                1183.437078321012
105                                               637.228594608543                                  759.6292564233141                                 1191.2523659446879                                1194.0886132216801                                1192.8835033116738                                1191.890558624772                                 1190.6379914192225
110                                               654.4526485314531                                 776.5389211406981                                 1199.290747537108                                 1201.833633493904                                 1200.5029058377427                                1199.4781050964039                                1198.200374479844
115                                               670.3176889701004                                 794.1263084883436                                 1207.7372091733323                                1210.0128903022514                                1208.5638508662196                                1207.508049931168                                 1206.2052120792127
120                                               684.8841996950192                                 812.7353364291749                                 1216.627194244396                                 1218.6520624353839                                1217.0898262797318                                1216.0037021544413                                1214.6759094565532
125                                               698.0659563646345                                 831.8757230305829                                 1225.910175426553                                 1227.714542773324                                 1226.0473482660668                                1224.9318329289986                                1223.5791006142822
130                                               709.8788951905714                                 851.2408309579033                                 1235.4437494627932                                1237.0314838852064                                1235.2593837176696                                1234.1139887018512                                1232.7355656504633
135                                               720.3250170989112                                 870.7921593017094                                 1245.2100364204384                                1246.5816855487883                                1244.7037046313949                                1243.52776312092                                  1242.1228019914302
140                                               729.3991065468803                                 890.6300631634812                                 1255.2556414962237                                1256.42040750952                                  1254.4382497298493                                1253.2315597867964                                1251.7994640455431
145                                               738.2068815976698                                 910.1267160914907                                 1265.3048311228495                                1266.2569991380883                                1264.167843674803                                 1262.9296100096717                                1261.4696776144906
150                                               746.7317635714554                                 929.2915314561761                                 1275.3617395355072                                1276.0958183299495                                1273.8969122033272                                1272.626348423088                                 1271.1378789137643
155                                               754.6929429432274                                 948.2839528386525                                 1285.4963923715104                                1286.01067907791                                  1283.7004184088946                                1282.3968888088152                                1280.8792085202044
160                                               764.413303160777                                  966.9482913395924                                 1295.4819774377138                                1295.7768894165051                                1293.3554953875969                                1292.019096782452                                 1290.4723175076497
165                                               775.5741727744531                                 985.3059055886305                                 1305.3496106174657                                1305.4252743595475                                1302.8927177769233                                1301.5234464886926                                1299.9475722654452
170                                               787.7346345519512                                 1003.3863476145847                                1315.142344180369                                 1314.9984837264356                                1312.3543889729126                                1310.9521022806648                                1309.3469880552639
175                                               803.7447946427313                                 1021.3813398515168                                1324.772456092407                                 1324.4137323342366                                1321.6602751767127                                1320.225510388033                                 1318.591562481975
180                                               822.907982609635                                  1039.244018307369                                 1334.2613888348706                                1333.6912559168359                                1330.8299884703974                                1329.3631166689688                                1327.7006066274344
185                                               844.8447116151932                                 1056.9488554626887                                1343.620822448965                                 1342.8420771820252                                1339.8742118492605                                1338.3755135741144                                1336.6846395276048
190                                               869.0276674789233                                 1074.566711814583                                 1352.695229738581                                 1351.709849421352                                 1348.63770341097                                  1347.1079424224276                                1345.389363558962
195                                               895.6357964216319                                 1092.0735405639489                                1361.5373894929226                                1360.347629528881                                 1357.1731451291212                                1355.6129212043866                                1353.8671402502337
200                                               924.712690606574                                  1109.4634837944395                                1370.1601588798317                                1368.7683424201405                                1365.4933705868066                                1363.903243556003                                 1362.1307251225917
200.2392401682262                                 926.1658516369617                                 1110.2926282112412                                1370.5672416008115                                1369.165815373577                                 1365.8860818152593                                1364.294538013863                                 1362.5207518918646
