% Model:              batchmodel_BILLETTA_r_0.0335556_COIL_kr_2.7711_COIL_kw_5.3284_FUNZ_freq_6066_FUNZ_I_eff_61.5962.mph
% Version:            COMSOL 5.6.0.280
% Date:               Jan 27 2022, 20:49
% Table:              Tabella delle sonde 1 - 
% Tempo (s)                                       Temperatura (degC), Punto: (0, 0.5)               Temperatura (degC), Punto: (0.5*BILLETTA_r, 0.5)  Temperatura (degC), Punto: (BILLETTA_r-10*FUNZ_depth_billetta, 0.5)Temperatura (degC), Punto: (BILLETTA_r-5*FUNZ_depth_billetta, 0.5)Temperatura (degC), Punto: (BILLETTA_r-2*FUNZ_depth_billetta, 0.5)Temperatura (degC), Punto: (BILLETTA_r-FUNZ_depth_billetta, 0.5)Temperatura (degC), Punto: (BILLETTA_r-0.01[mm], 0.5)
0                                                 20.000000000000057                                19.999999999999886                                20.000000000022567                                20.00010444131857                                 20.141220534595448                                20.332969852740632                                20.53167128391135
5                                                 25.02383780576963                                 60.91897715091034                                 355.5191218045112                                 417.002318022385                                  454.04336193830295                                461.9638395859515                                 464.9861350831344
10                                                72.66606438752774                                 174.34777127927276                                637.8714949152734                                 729.9539034311643                                 780.9982999116577                                 790.9634746057078                                 794.3938070452961
15                                                162.90287876568203                                300.131035724787                                  860.0381413582121                                 978.2179109721675                                 1027.1290277367593                                1035.0627116763626                                1037.1767518808033
20                                                265.50542088730674                                415.03328032232184                                996.0658880745194                                 1066.9052968314672                                1086.4655790585616                                1088.5618649759735                                1088.3678480478648
25                                                361.78159811661817                                510.8722852781898                                 1039.5230565507313                                1081.582287853415                                 1092.5030720327572                                1093.3579813701785                                1092.7410085077076
30                                                445.3654267191289                                 587.9848353707243                                 1067.7581410751432                                1096.371034256489                                 1102.7999567177058                                1102.9408716651296                                1102.0566515899854
35                                                516.4833984890159                                 649.4261954222383                                 1083.8639830483348                                1104.7049546048388                                1108.8762912352418                                1108.6773856993032                                1107.667116519091
40                                                577.1759678039851                                 700.0998580290858                                 1096.1441539654502                                1111.887560797706                                 1114.5493557864193                                1114.118430403198                                 1113.0185348858327
45                                                628.4139607324553                                 742.4898348306567                                 1109.0408859912986                                1120.7927432500019                                1122.1557092564517                                1121.5114987740762                                1120.322645064834
50                                                670.8669429296613                                 784.2669960709578                                 1119.8000711458367                                1128.586213229456                                 1129.0139407361053                                1128.215924368999                                 1126.960366132852
55                                                704.5404222069839                                 823.9403991650807                                 1129.1317695854332                                1135.9153886172603                                1135.709395081225                                 1134.8035712649453                                1133.4972384840103
60                                                730.2064103139254                                 863.4848624885141                                 1137.747505087209                                 1142.9498024039062                                1142.2396817152685                                1141.246003018251                                 1139.8959188882395
65                                                752.1574823801319                                 901.3673186995321                                 1146.1249247690716                                1150.116514475194                                 1149.0115169366773                                1147.9457470639227                                1146.5565787943078
70                                                774.216031425581                                  936.8562871560463                                 1154.8627455356595                                1157.8201743032791                                1156.3644843669585                                1155.2316098679385                                1153.8035675793426
75                                                812.702266034027                                  969.0972583710269                                 1164.5189858945037                                1166.6621492543218                                1164.9119948545663                                1163.7176534358446                                1162.2497155114024
80                                                854.1794976857119                                 1000.6297410672943                                1174.5471459263917                                1175.92487180003                                  1173.892347514326                                 1172.637405439269                                 1171.1287839005704
85                                                899.7420721879636                                 1030.2652822856899                                1185.6824438631402                                1186.4588204520446                                1184.1858499139707                                1182.873741259681                                 1181.3222819361254
90                                                940.6431660539535                                 1057.4551976638072                                1197.755138346654                                 1198.0103675216128                                1195.5175748452757                                1194.1500107912489                                1192.554632398455
95                                                976.837295674405                                  1082.1756244209473                                1210.7743758652687                                1210.5894420532659                                1207.8976525890798                                1206.4763610113573                                1204.835971714493
100                                               1013.0314252948568                                1106.8960511780874                                1223.793613383883                                 1223.168516584919                                 1220.2777303328844                                1218.8027112314653                                1217.1173110305313
105                                               1048.4409893709021                                1131.2813022231448                                1236.8563687351316                                1235.7978638789086                                1232.7099038916303                                1231.181337601492                                 1229.4508754868584
110                                               1076.6302858622375                                1152.5819692632208                                1250.3196137568289                                1248.889865694091                                 1245.6215093176083                                1244.0410554410605                                1242.265061976901
115                                               1104.819582353573                                 1173.8826363032972                                1263.7828587785266                                1261.9818675092738                                1258.5331147435868                                1256.900773280629                                 1255.0792484669446
120                                               1132.809925228311                                 1195.0806866329235                                1277.2281145971929                                1275.057647064457                                 1271.4290129931464                                1269.744853211424                                 1267.8778109585128
125                                               1155.81902201209                                  1213.7094994863096                                1290.2229707256724                                1287.7272662763758                                1283.9316471620027                                1282.1974033309857                                1280.2851919141158
130                                               1178.8281187958696                                1232.3383123396957                                1303.2178268541516                                1300.3968854882946                                1296.4342813308585                                1294.6499534505479                                1292.6925728697188
135                                               1201.8372155796487                                1250.9671251930822                                1316.2126829826311                                1313.0665047002135                                1308.9369154997148                                1307.10250357011                                  1305.0999538253213
140                                               1221.4385295810066                                1267.5919345766583                                1328.441067820972                                 1325.0011834427155                                1320.715876771108                                 1318.8335907047558                                1316.787181023687
145                                               1240.9660396058075                                1284.1733423015767                                1340.652852825127                                 1336.9199452290495                                1332.4791651135129                                1330.549052771542                                 1328.4588115087613
150                                               1260.493549630608                                 1300.7547500264945                                1352.8646378292824                                1348.8387070153844                                1344.2424534559168                                1342.2645148383285                                1340.1304419938356
155                                               1278.0268799053633                                1315.68511432359                                  1363.6860562646311                                1359.406370596193                                 1354.6737428295237                                1352.653311339981                                 1350.4797530500146
160                                               1294.338447958808                                 1329.6039436846736                                1373.6556471014392                                1369.1462648925367                                1364.2889643341923                                1362.2293075573261                                1360.0189265432714
165                                               1309.559496214325                                 1342.6198977932945                                1382.8649141662172                                1378.14730937254                                  1373.1757804650429                                1371.0798149796042                                1368.8349879317334
170                                               1323.6900246719142                                1354.7329766494518                                1391.3138574589657                                1386.4095040362035                                1381.3341912220749                                1379.204833606815                                 1376.9279372154006
175                                               1336.7300333315766                                1365.9431802531462                                1399.0024769796842                                1393.9328488835272                                1388.7641966052897                                1386.6043634389584                                1384.2977743942724
175.40401650210345                                1337.7360901729621                                1366.8095765380567                                1399.5905423346949                                1394.5084971862875                                1389.332758840792                                 1387.1705905053705                                1384.8617059774224
