% Model:              batchmodel_BILLETTA_r_0.0335556_COIL_kr_1.4848_COIL_kw_4.5299_FUNZ_freq_2540.9_FUNZ_I_eff_127.5152.mph
% Version:            COMSOL 5.6.0.280
% Date:               Jan 27 2022, 16:32
% Table:              Tabella delle sonde 1 - 
% Tempo (s)                                       Temperatura (degC), Punto: (0, 0.5)               Temperatura (degC), Punto: (0.5*BILLETTA_r, 0.5)  Temperatura (degC), Punto: (BILLETTA_r-10*FUNZ_depth_billetta, 0.5)Temperatura (degC), Punto: (BILLETTA_r-5*FUNZ_depth_billetta, 0.5)Temperatura (degC), Punto: (BILLETTA_r-2*FUNZ_depth_billetta, 0.5)Temperatura (degC), Punto: (BILLETTA_r-FUNZ_depth_billetta, 0.5)Temperatura (degC), Punto: (BILLETTA_r-0.01[mm], 0.5)
0                                                 20                                                20.000000000000057                                20.000000000616637                                20.00697472630702                                 20.214708925899004                                20.366506155575053                                20.521853553888604
5                                                 30.338414595939582                                99.40188838639239                                 579.4588947296762                                 760.3677367442734                                 863.0845360648415                                 882.3489103965707                                 888.6166103618306
10                                                115.11356865270898                                277.59620659346456                                1024.4828311431415                                1174.1574070873248                                1208.6395618433635                                1211.755661748506                                 1210.9087590246513
15                                                243.6486712006939                                 441.7375293494374                                 1175.0424193690455                                1237.631363906165                                 1249.3626135491636                                1249.2368155468735                                1247.1980125875034
20                                                368.9984189001897                                 575.1904933212156                                 1225.99875265419                                  1259.2763642952082                                1263.456299475131                                 1262.256699531591                                 1259.821178272644
25                                                477.6502604729063                                 683.05486034607                                   1251.5866443565524                                1271.6040197812463                                1272.4325518718701                                1270.7553870478746                                1268.1346913398838
30                                                570.0489519803909                                 784.5096651800092                                 1272.595421865919                                 1285.6847040641155                                1284.7354293985186                                1282.7847844721364                                1280.03264483685
35                                                647.0739172280106                                 893.4771405080663                                 1294.8516202051037                                1304.4714517651464                                1302.5745574140801                                1300.4443332739966                                1297.5699251496385
40                                                707.0238758716296                                 1001.6703555638361                                1320.90240649336                                  1328.923961990325                                 1326.4868194491178                                1324.2093663520322                                1321.1985220546349
45                                                759.6453628958744                                 1092.582965245212                                 1351.5348695376574                                1358.403793007552                                 1355.4791190459778                                1353.0436667000927                                1349.8710549736775
48.1508222870406                                  800.3794325470097                                 1139.022084745839                                 1372.1457720241779                                1378.0709221554484                                1374.7880588535554                                1372.2458777796755                                1368.963849489744
