% Model:              batchmodel_BILLETTA_r_0.0335556_COIL_kr_1.9397_COIL_kw_3.7744_FUNZ_freq_6066_FUNZ_I_eff_127.5152.mph
% Version:            COMSOL 5.6.0.280
% Date:               Jan 27 2022, 18:26
% Table:              Tabella delle sonde 1 - 
% Tempo (s)                                       Temperatura (degC), Punto: (0, 0.5)               Temperatura (degC), Punto: (0.5*BILLETTA_r, 0.5)  Temperatura (degC), Punto: (BILLETTA_r-10*FUNZ_depth_billetta, 0.5)Temperatura (degC), Punto: (BILLETTA_r-5*FUNZ_depth_billetta, 0.5)Temperatura (degC), Punto: (BILLETTA_r-2*FUNZ_depth_billetta, 0.5)Temperatura (degC), Punto: (BILLETTA_r-FUNZ_depth_billetta, 0.5)Temperatura (degC), Punto: (BILLETTA_r-0.01[mm], 0.5)
0                                                 20                                                20                                                20.00000000322632                                 20.020485414638642                                20.521607059610005                                20.885523484099792                                21.214342445337024
5                                                 32.23178636148731                                 128.6209578288367                                 1082.6643366077374                                1213.9333314329433                                1245.4947120346742                                1248.7618694866287                                1248.5778295053296
10                                                135.08547076820304                                332.97012794862894                                1245.2715384164057                                1282.6095090532322                                1289.7805395760533                                1289.6080905935078                                1288.201084612182
15                                                279.7692890987264                                 498.41523501629445                                1293.144796087865                                 1314.1384942349896                                1317.092160471036                                 1316.2937180145914                                1314.6203639542482
20                                                409.01748332398506                                628.6270488279013                                 1339.9300656288797                                1355.6055889077961                                1357.0718723860596                                1355.9917730804823                                1354.1307756367833
23.672198070112184                                490.3008700066712                                 709.8153278146419                                 1375.1047968105077                                1388.151769839978                                 1388.7856232992126                                1387.5306271231816                                1385.5345807150638
