% Model:              batchmodel_BILLETTA_r_0.0131664_COIL_kr_1.6756_COIL_kw_5.8583_FUNZ_freq_2540.9_FUNZ_I_eff_127.5152.mph
% Version:            COMSOL 5.6.0.401
% Date:               Jan 27 2022, 12:39
% Table:              Tabella delle sonde 1 - 
% Tempo (s)                                       Temperatura (degC), Punto: (0, 0.5)               Temperatura (degC), Punto: (0.5*BILLETTA_r, 0.5)  Temperatura (degC), Punto: (BILLETTA_r-10*FUNZ_depth_billetta, 0.5)Temperatura (degC), Punto: (BILLETTA_r-5*FUNZ_depth_billetta, 0.5)Temperatura (degC), Punto: (BILLETTA_r-2*FUNZ_depth_billetta, 0.5)Temperatura (degC), Punto: (BILLETTA_r-FUNZ_depth_billetta, 0.5)Temperatura (degC), Punto: (BILLETTA_r-0.01[mm], 0.5)
0                                                 20                                                20                                                20.000000000792625                                20.00865495011209                                 20.21378568483715                                 20.355096989810306                                20.49649378844248
5                                                 404.75479549509373                                542.9455174910204                                 713.8111488228678                                 911.2298444514257                                 1002.1507595582506                                1016.3005986827967                                1020.0903873087647
10                                                764.4063262159124                                 1042.5016976930165                                1160.6138310800293                                1195.1342430577697                                1199.4485791191523                                1198.3905313422224                                1196.2090269482737
15                                                1167.7811675463804                                1208.9672126682267                                1228.9387990677792                                1234.249009537206                                 1231.7817337059337                                1229.7825845502894                                1227.1989304733693
20                                                1250.5444692858196                                1268.7246571855285                                1277.5468644680313                                1277.7285957846502                                1273.4615253147563                                1271.0779376110768                                1268.2236791294522
25                                                1303.6897325669838                                1316.4861819312991                                1321.7180513115532                                1319.7380185322208                                1314.4635582138826                                1311.802151713725                                 1308.7072780760673
30                                                1346.506463844726                                 1356.5712552588902                                1359.798749942213                                 1356.5133160418718                                1350.542694897861                                 1347.6621387951686                                1344.359435210602
34.564244327646634                                1373.177252377162                                 1381.8201990739972                                1384.2522363437365                                1380.5934598685549                                1374.3726504674464                                1371.379513971895                                 1367.9458169854342
