% Model:              batchmodel_BILLETTA_r_0.0335556_COIL_kr_2.4069_COIL_kw_5.8583_FUNZ_freq_6066_FUNZ_I_eff_61.5962.mph
% Version:            COMSOL 5.6.0.280
% Date:               Jan 27 2022, 20:02
% Table:              Tabella delle sonde 1 - 
% Tempo (s)                                       Temperatura (degC), Punto: (0, 0.5)               Temperatura (degC), Punto: (0.5*BILLETTA_r, 0.5)  Temperatura (degC), Punto: (BILLETTA_r-10*FUNZ_depth_billetta, 0.5)Temperatura (degC), Punto: (BILLETTA_r-5*FUNZ_depth_billetta, 0.5)Temperatura (degC), Punto: (BILLETTA_r-2*FUNZ_depth_billetta, 0.5)Temperatura (degC), Punto: (BILLETTA_r-FUNZ_depth_billetta, 0.5)Temperatura (degC), Punto: (BILLETTA_r-0.01[mm], 0.5)
0                                                 20                                                20                                                20.00000000002251                                 20.000104441360975                                20.141220554531003                                20.33296988702142                                 20.531671325161483
5                                                 24.735068740626275                                57.59747583499046                                 325.86835464394335                                380.73183679113015                                413.52693777612285                                420.62216295295457                                423.3734205236369
10                                                74.06445229450668                                 167.9358501417438                                 604.24302238009                                   690.7414693825286                                 736.8299290271689                                 745.9531641879972                                 749.1488521225199
15                                                162.09069260800226                                290.5524302898151                                 841.7288900966424                                 962.9994153038891                                 1015.0829044895312                                1023.6109200494537                                1025.9389263940575
20                                                259.8293420948795                                 403.4547657140498                                 982.4821799604475                                 1060.1376341231776                                1082.6120410307167                                1085.166020706149                                 1085.1370074227261
25                                                351.28941822771674                                497.1210771927058                                 1039.9363076091977                                1087.997364914002                                 1099.4417253261222                                1100.27801896242                                  1099.627401665156
30                                                430.3869483550817                                 571.2165463030382                                 1061.9821690029894                                1094.1379950984474                                1101.6238362289291                                1101.920374502999                                 1101.0906059641457
35                                                498.0150014028882                                 631.0879437114511                                 1078.387472809804                                 1101.9731952463922                                1106.9471577435634                                1106.8681396178754                                1105.901769724956
40                                                558.1977448417088                                 682.7049908389184                                 1092.8906966129034                                1110.1760852284297                                1113.23558999541                                  1112.8613948764582                                1111.782508098329
45                                                610.7141354422592                                 726.5015188277491                                 1104.6650520007215                                1117.8311230157055                                1119.6155960966262                                1119.03835413975                                  1117.877383127166
50                                                654.983753692214                                  766.816729810036                                  1115.121376983071                                 1125.1179541346737                                1125.9258348036747                                1125.1908650134114                                1123.9632646845894
55                                                691.1402468827475                                 805.2877259158148                                 1124.4146326690075                                1132.1415157591696                                1132.2444768624473                                1131.392169101915                                 1130.1114575015472
60                                                719.0512424197943                                 845.0902829210805                                 1133.0963786615785                                1139.0784421419107                                1138.6284581886375                                1137.681242576563                                 1136.3547457964105
65                                                741.8288506044271                                 883.5869702603671                                 1141.8769406698225                                1146.3943857833078                                1145.4684082613808                                1144.4365633221792                                1143.066611159507
70                                                762.6009674763915                                 920.3592575908143                                 1150.733160743925                                 1154.0934251734684                                1152.7782879066326                                1151.6736189403573                                1150.2630202422574
75                                                787.5045412883061                                 954.2093871884573                                 1159.9363757665951                                1162.3624465961993                                1160.7210083965165                                1159.5514896372092                                1158.1013800347805
80                                                822.9009668966879                                 986.0884454941312                                 1169.7228246453296                                1171.3723914435113                                1169.4476321413676                                1168.2179971503851                                1166.7280132624846
85                                                866.4737207069321                                 1016.2106131893173                                1180.155662754721                                 1181.169830239386                                 1178.9992496430432                                1177.7132906485585                                1176.1826217122457
90                                                915.3276725429636                                 1045.1410806948138                                1191.4385326083411                                1191.9032069814366                                1189.5067411883524                                1188.165293963592                                 1186.5917444192319
95                                                962.1215403607106                                 1072.8167182491147                                1203.6140999384215                                1203.5809090921052                                1200.9708570931502                                1199.5743188153638                                1197.9561905685196
100                                               1002.2994965719994                                1098.0656962105677                                1216.8054356035036                                1216.3364633311262                                1213.5278865282576                                1212.077176490939                                 1210.4131980558282
105                                               1034.136091321669                                 1120.9480752925901                                1230.4843771112332                                1229.6132762223824                                1226.6146461629692                                1225.110764119896                                 1223.4011212821342
110                                               1065.9726860713386                                1143.830454374613                                 1244.1633186189624                                1242.8900891136395                                1239.7014057976812                                1238.1443517488524                                1236.3890445084407
115                                               1095.9452898927725                                1165.9077053972787                                1257.7830366552685                                1256.1227338562958                                1252.7482711437065                                1251.1385034335758                                1249.337447027864
120                                               1121.946004685723                                 1186.2693475845995                                1271.276558231703                                 1269.2612628056954                                1265.71012765995                                  1264.0486229527678                                1262.2016367650867
125                                               1147.946719478674                                 1206.6309897719207                                1284.7700798081373                                1282.3997917550955                                1278.6719841761933                                1276.9587424719598                                1275.065826502309
130                                               1171.7458825771278                                1225.7854821082728                                1297.9763611946019                                1295.2711829152986                                1291.3727346028913                                1289.6086169640848                                1287.6700004023464
135                                               1193.8946089074925                                1244.0350106849223                                1310.9673072918763                                1307.942308948619                                 1303.8777416856392                                1302.0633936247768                                1300.079248287679
140                                               1216.0433352378577                                1262.2845392615718                                1323.9582533891507                                1320.6134349819395                                1316.382748768387                                 1314.5181702854688                                1312.4884961730118
145                                               1233.3329990699153                                1277.124736719902                                 1334.6795211338372                                1331.0780406724289                                1326.7114477595728                                1324.8046772557063                                1322.7360257421751
150                                               1249.5824493109958                                1291.2350747523346                                1344.9149029138284                                1341.0702810763669                                1336.5742492127488                                1334.6270075248412                                1332.5207811088803
155                                               1265.8318995520767                                1305.3454127847672                                1355.1502846938188                                1351.062521480305                                 1346.4370506659247                                1344.4493377939762                                1342.3055364755855
160                                               1282.0813497931572                                1319.4557508172002                                1365.3856664738096                                1361.054761884243                                 1356.2998521191003                                1354.271668063111                                 1352.0902918422912
165                                               1298.330800034238                                 1333.5660888496323                                1375.6210482538004                                1371.0470022881814                                1366.1626535722762                                1364.093998332246                                 1361.8750472089969
165.88164511648017                                1301.1960497243454                                1336.0541509732684                                1377.4258431261283                                1372.8089242791466                                1367.901751719477                                 1365.8259602350936                                1363.6003835659985
