% Model:              batchmodel_BILLETTA_r_0.0335556_COIL_kr_2.4069_COIL_kw_3.7744_FUNZ_freq_6066_FUNZ_I_eff_85.0125.mph
% Version:            COMSOL 5.6.0.280
% Date:               Jan 27 2022, 19:28
% Table:              Tabella delle sonde 1 - 
% Tempo (s)                                       Temperatura (degC), Punto: (0, 0.5)               Temperatura (degC), Punto: (0.5*BILLETTA_r, 0.5)  Temperatura (degC), Punto: (BILLETTA_r-10*FUNZ_depth_billetta, 0.5)Temperatura (degC), Punto: (BILLETTA_r-5*FUNZ_depth_billetta, 0.5)Temperatura (degC), Punto: (BILLETTA_r-2*FUNZ_depth_billetta, 0.5)Temperatura (degC), Punto: (BILLETTA_r-FUNZ_depth_billetta, 0.5)Temperatura (degC), Punto: (BILLETTA_r-0.01[mm], 0.5)
0                                                 20                                                19.999999999999886                                20.000000000172406                                20.00100672731071                                 20.260608510747318                                20.51926924971923                                 20.767970097904936
5                                                 26.324264576216194                                78.3288673919269                                  578.3788707757276                                 703.2513087450949                                 767.4817320529872                                 779.7073159395717                                 784.0032279653502
10                                                97.13804155412242                                 237.91390215270798                                984.8830084969726                                 1103.9611793830622                                1134.254777654744                                 1137.4620020106381                                1137.4853031733333
15                                                214.06532789744898                                383.5674320637728                                 1086.0575563901398                                1135.9510842110371                                1147.2316820082901                                1147.9084171814652                                1147.0954898538293
20                                                324.68555352690714                                495.1493455084001                                 1119.4809891509822                                1149.141439991236                                 1154.9735649207641                                1154.8749877864434                                1153.7910097559975
25                                                419.0584177213449                                 582.9533443692263                                 1141.360374495885                                 1160.9946378948566                                1164.1056993295279                                1163.6090571306045                                1162.3741704096774
30                                                501.29463364411083                                657.0811685919226                                 1160.2580627417678                                1173.7287319183229                                1175.1290950840325                                1174.3704827352622                                1173.0245617515216
35                                                572.0478919358856                                 719.8226390202775                                 1178.029745975537                                 1187.8598408058779                                1188.213089372136                                 1187.2804589929206                                1185.847101060314
40                                                631.4050077279055                                 776.9460795343426                                 1195.843493201368                                 1203.5390828171007                                1203.2450984571765                                1202.19119318281                                  1200.6837299602867
45                                                679.719845235138                                  836.8481022906961                                 1215.2699017719506                                1221.6092138805566                                1220.864808348956                                 1219.713746486822                                 1218.1362499400193
50                                                717.0865755321145                                 898.7238697579359                                 1237.1173529461898                                1242.548827049041                                 1241.4592788437244                                1240.2201911160569                                1238.569850251787
55                                                745.4784568768516                                 957.8596180136107                                 1261.986998852029                                 1266.7312551239647                                1265.329115647744                                 1263.9983371499707                                1262.2652383323802
60                                                779.2594295584323                                 1013.4736295099659                                1289.588232934239                                 1293.6982866264475                                1291.9685502757052                                1290.536026235507                                 1288.7087343627422
65                                                830.9470192938087                                 1066.1037091907278                                1319.2730263215408                                1322.7168597396912                                1320.6250237610639                                1319.0791541547374                                1317.147080350825
70                                                902.4194735669206                                 1116.49330555198                                  1349.5341624355692                                1352.176432716155                                 1349.6772044982858                                1348.0090365292417                                1345.9661584464097
75                                                982.2219468299521                                 1165.1226937221431                                1377.2519634095052                                1378.8922822926497                                1375.9575739904571                                1374.1692953158945                                1372.0213569584034
78.9481888040329                                  1041.8609697621464                                1202.135199125767                                 1394.212467616726                                 1394.9473926871788                                1391.684956762273                                 1389.8164105838691                                1387.6020817685899
