% Model:              batchmodel_BILLETTA_r_0.0445341_COIL_kr_1.6756_COIL_kw_5.8583_FUNZ_freq_6066_FUNZ_I_eff_61.5962.mph
% Version:            COMSOL 5.6.0.401
% Date:               Jan 27 2022, 15:24
% Table:              Tabella delle sonde 1 - 
% Tempo (s)                                       Temperatura (degC), Punto: (0, 0.5)               Temperatura (degC), Punto: (0.5*BILLETTA_r, 0.5)  Temperatura (degC), Punto: (BILLETTA_r-10*FUNZ_depth_billetta, 0.5)Temperatura (degC), Punto: (BILLETTA_r-5*FUNZ_depth_billetta, 0.5)Temperatura (degC), Punto: (BILLETTA_r-2*FUNZ_depth_billetta, 0.5)Temperatura (degC), Punto: (BILLETTA_r-FUNZ_depth_billetta, 0.5)Temperatura (degC), Punto: (BILLETTA_r-0.01[mm], 0.5)
0                                                 20                                                20                                                20.0000000000216                                  20.000100424150332                                20.140705843724902                                20.33243166125584                                 20.530714878922595
5                                                 20.66781789045814                                 34.51975939622673                                 330.09680877431583                                388.7738291994755                                 423.6100346975711                                 431.1077767750097                                 434.0004859465689
10                                                32.1716438033597                                  91.9690880903334                                  589.6511971907098                                 674.6251190467638                                 720.6855164504117                                 729.8159866260711                                 733.0823155042284
15                                                67.50224208054499                                 173.46245504792017                                814.271808393257                                  939.6334540432553                                 995.435247280754                                  1004.8092778251581                                1007.5014624795541
20                                                120.47812253341357                                256.49880474308645                                963.09350586893                                   1052.2059891908743                                1079.693753998673                                 1082.9906995455003                                1083.215994735031
25                                                181.24324168695108                                335.0168071373513                                 1019.7325060986665                                1074.5039496887398                                1089.0295487980052                                1090.4687093453726                                1090.0616267648797
30                                                244.0896517530706                                 405.05863376754473                                1050.4624755312739                                1088.9231120188906                                1098.289240585258                                 1098.867086397881                                 1098.1387578806634
35                                                305.1881004864923                                 466.26182856540095                                1066.4189151962119                                1094.8103865533353                                1101.4583393458774                                1101.6547149009334                                1100.7948722768824
40                                                361.98519976190687                                519.524297434824                                  1078.2114657635384                                1099.644487432609                                 1104.3477560717033                                1104.2659565474219                                1103.308676025612
45                                                413.5155345942177                                 565.8924752461379                                 1090.690187342701                                 1108.6324150995792                                1111.9947584157458                                1111.6767876662157                                1110.6207170730345
50                                                460.30276288573657                                606.6720646934194                                 1100.9364054334055                                1115.758064943464                                 1118.0587986823753                                1117.5625385825128                                1116.4323313947257
55                                                502.3992258670702                                 641.9242460932285                                 1109.1638387428234                                1121.4303923329367                                1122.9606702756723                                1122.3410892175166                                1121.1589942003197
60                                                540.6795837688703                                 673.4990731184917                                 1116.375462877017                                 1126.585129168384                                 1127.4800513520813                                1126.7570721793827                                1125.5304641922708
65                                                575.0302770222099                                 701.1643217070587                                 1122.5918167956124                                1131.2417065049372                                1131.6571325284408                                1130.8551683487653                                1129.5930481373339
70                                                605.8990647016078                                 725.9413434499228                                 1128.58170277725                                  1135.8972926170945                                1135.8882595026353                                1135.0144774520031                                1133.7189826120498
75                                                633.6267904646922                                 749.5909700289174                                 1134.4778017659132                                1140.664116174044                                 1140.288522333914                                 1139.3510095338384                                1138.024424856258
80                                                658.6796615337345                                 774.0858617755704                                 1140.6621587385544                                1145.8136721764163                                1145.0980478247752                                1144.0999238640334                                1142.742354860528
85                                                680.8407469309698                                 798.5081197083265                                 1146.957004268958                                 1151.2196312300462                                1150.2051025237301                                1149.1517984347706                                1147.7643646578877
90                                                700.1365758772727                                 822.8560358938761                                 1153.3648230994813                                1156.8827670777368                                1155.610021394793                                 1154.506907940408                                 1153.0907065884362
95                                                717.7402975540515                                 847.0540837807713                                 1159.995493069197                                 1162.8372954147344                                1161.3276168880348                                1160.1773996453294                                1158.7325393884707
100                                               732.9854724574434                                 871.1451682938695                                 1166.7865950640507                                1169.0637790788037                                1167.3494743857473                                1166.1563729635077                                1164.6835240324012
105                                               745.8721005874481                                 895.129289433171                                  1173.7381290840426                                1175.562218069946                                 1173.675593887931                                 1172.443827894942                                 1170.9436605202277
110                                               759.5682541834123                                 918.470816986582                                  1181.0044024820577                                1182.4321326954127                                1180.3881669973161                                1179.1191394762627                                1177.5911206497794
115                                               776.6866899664927                                 940.7280086796299                                 1188.7126748478145                                1189.7555988461613                                1187.55497836218                                  1186.2477694914114                                1184.690373875902
120                                               794.6934308406154                                 962.3292874101747                                 1196.7395237122446                                1197.4530153767264                                1195.1102871713674                                1193.7662299547542                                1192.1788946214324
125                                               813.5884768057809                                 983.274653178216                                  1205.0849490753471                                1205.524382287108                                 1203.0540934248797                                1201.674520866291                                 1200.0566828863712
130                                               841.340121164708                                  1002.8221885784427                                1214.2476734593047                                1214.412594114876                                 1211.8133690876784                                1210.39795711435                                  1208.749538555856
135                                               869.616396964106                                  1022.3040025169597                                1223.450975122671                                 1223.3395207953                                   1220.6107917456375                                1219.1594759342124                                1217.4804905664287
140                                               897.892672763504                                  1041.7858164554764                                1232.654276786037                                 1232.2664474757244                                1229.408214403596                                 1227.9209947540758                                1226.2114425770014
145                                               925.3224688450651                                 1060.6252402279724                                1242.0208197243678                                1241.364219886524                                 1238.3775904012664                                1236.8541353519454                                1235.1133011312586
150                                               951.4706082357189                                 1078.4920197219299                                1251.6345266146318                                1250.7206701709151                                1247.6073213061145                                1246.0471288387303                                1244.2739296366658
155                                               977.6187476263727                                 1096.3587992158868                                1261.2482335048953                                1260.0771204553066                                1256.837052210963                                 1255.2401223255147                                1253.4345581420725
160                                               1003.7668870170265                                1114.2255787098438                                1270.8619403951589                                1269.4335707396986                                1266.0667831158116                                1264.4331158122995                                1262.5951866474793
165                                               1026.5427129894642                                1130.739259299538                                 1280.3634894760066                                1278.6897413856937                                1275.199031914352                                 1273.5286774350911                                1271.65794268858
170                                               1048.7437995828227                                1147.022332846639                                 1289.8459236343228                                1287.928821491766                                 1284.3146669530474                                1282.6076338607772                                1280.7040184415855
175                                               1070.9448861761812                                1163.3054063937411                                1299.328357792639                                 1297.1679015978384                                1293.4303019917438                                1291.6865902864633                                1289.7500941945905
180                                               1092.638670747479                                 1179.350620240904                                 1308.7643912640924                                1306.36285671222                                  1302.5024403858974                                1300.7221055949053                                1298.7526998123772
185                                               1112.6538655390073                                1194.608790386339                                 1318.046891504147                                 1315.4118085448022                                1311.4306546090306                                1309.6138804642087                                1307.6114689746987
190                                               1131.8227022879328                                1209.470126966561                                 1327.2519790929587                                1324.3871443853855                                1320.2863011440136                                1318.433180284409                                 1316.397714675738
195                                               1150.1451809942555                                1223.9346299815688                                1336.379654030527                                 1333.2888642339694                                1329.0693799908481                                1327.1800050555066                                1325.1114369154943
200                                               1167.6213016579745                                1238.002299431364                                 1345.4299163168535                                1342.1169680905546                                1337.7798911495338                                1335.8543547775012                                1333.7526356939684
205                                               1184.3589983649836                                1251.614507419422                                 1354.1603053947233                                1350.632787777553                                 1346.1822020759091                                1344.221642723673                                 1342.0877208614884
210                                               1200.5751014250973                                1264.6534755362504                                1362.0837388257805                                1358.3568594216072                                1353.8029472234898                                1351.810604304966                                 1349.6474298667094
215                                               1216.0755308234816                                1277.2246246313653                                1369.6361933281428                                1365.7183405317978                                1361.0658256238457                                1359.0430580324214                                1356.851789240994
220                                               1230.860286560137                                 1289.3279547047673                                1376.81766890181                                  1372.7172311081254                                1367.970837276977                                 1365.9190039060381                                1363.7007989843428
225                                               1244.9293686350634                                1300.9634657564561                                1383.6281655467828                                1379.3535311505898                                1374.5179821828829                                1372.4384419258163                                1370.1944590967555
228.44490448257028                                1254.2062914372382                                1308.7079158083416                                1388.104618072366                                 1383.714846229886                                 1378.8206195538237                                1376.7227804370332                                1374.4617110200943
