% Model:              batchmodel_BILLETTA_r_0.0445341_COIL_kr_2.4069_COIL_kw_3.2356_FUNZ_freq_6066_FUNZ_I_eff_162.3068.mph
% Version:            COMSOL 5.6.0.401
% Date:               Jan 27 2022, 17:24
% Table:              Tabella delle sonde 1 - 
% Tempo (s)                                       Temperatura (degC), Punto: (0, 0.5)               Temperatura (degC), Punto: (0.5*BILLETTA_r, 0.5)  Temperatura (degC), Punto: (BILLETTA_r-10*FUNZ_depth_billetta, 0.5)Temperatura (degC), Punto: (BILLETTA_r-5*FUNZ_depth_billetta, 0.5)Temperatura (degC), Punto: (BILLETTA_r-2*FUNZ_depth_billetta, 0.5)Temperatura (degC), Punto: (BILLETTA_r-FUNZ_depth_billetta, 0.5)Temperatura (degC), Punto: (BILLETTA_r-0.01[mm], 0.5)
0                                                 20                                                20.000000000000057                                20.000000026090675                                20.067576663303555                                20.765000017409307                                21.20857542353417                                 21.60355063999441
5                                                 21.216820562294288                                66.99860221192154                                 1271.4687324944607                                1359.5750132814865                                1379.723298791669                                 1381.1899574017366                                1380.1081463848345
6.050210572367497                                 23.15881551701375                                 92.96949920249523                                 1319.235110468699                                 1383.099377831018                                 1396.693749310759                                 1397.222272069434                                 1395.7912177821358
