% Model:              batchmodel_BILLETTA_r_0.0257427_COIL_kr_1.9397_COIL_kw_5.3284_FUNZ_freq_2540.9_FUNZ_I_eff_61.5962.mph
% Version:            COMSOL 5.6.0.280
% Date:               Jan 27 2022, 13:57
% Table:              Tabella delle sonde 1 - 
% Tempo (s)                                       Temperatura (degC), Punto: (0, 0.5)               Temperatura (degC), Punto: (0.5*BILLETTA_r, 0.5)  Temperatura (degC), Punto: (BILLETTA_r-10*FUNZ_depth_billetta, 0.5)Temperatura (degC), Punto: (BILLETTA_r-5*FUNZ_depth_billetta, 0.5)Temperatura (degC), Punto: (BILLETTA_r-2*FUNZ_depth_billetta, 0.5)Temperatura (degC), Punto: (BILLETTA_r-FUNZ_depth_billetta, 0.5)Temperatura (degC), Punto: (BILLETTA_r-0.01[mm], 0.5)
0                                                 19.999999999999943                                20                                                20.00000000000273                                 20.000008305591848                                20.028195310266938                                20.093703997338878                                20.1658225739277
5                                                 34.7062104242965                                  70.8268716438904                                  183.9695186275486                                 225.5084417258363                                 251.93301365425543                                258.07973649386076                                260.55511716326885
10                                                108.02326781487346                                177.56106101545015                                336.8082744331658                                 392.10974154976634                                424.35988909395667                                431.52488405966676                                434.28493399270394
15                                                210.7345389094295                                 293.9346652045424                                 489.35467919785356                                555.4749501889797                                 591.8970296751653                                 599.1560364599653                                 601.7614119618167
20                                                314.45302424850865                                407.57561274093734                                629.0311098986507                                 709.2269129560317                                 751.6931367690769                                 759.7334331030648                                 762.3241550897711
25                                                411.07172885581076                                509.496042127069                                  750.7416401422273                                 851.6239568715683                                 901.5892961266642                                 910.2799446088055                                 912.6516894680345
30                                                497.8796317745216                                 599.4374941111383                                 885.6198349149485                                 995.5313025188713                                 1039.2944783453163                                1045.7369909689996                                1046.78270348877
35                                                574.1580078444903                                 674.3086678628337                                 974.6393062136218                                 1052.7079401508663                                1075.6563575563014                                1077.9452772625827                                1077.3466965233538
40                                                639.4902606431051                                 735.4180510171701                                 1024.449374139761                                 1073.9252801714565                                1085.5902031194                                   1086.1059687937286                                1084.868882237316
45                                                690.9148466694161                                 791.2339731962865                                 1053.0767019531795                                1085.3062000603268                                1091.693842140221                                 1091.420492195518                                 1089.8988230685154
50                                                729.6195743217617                                 851.4968096498432                                 1073.2920380451787                                1094.5537098030813                                1097.6558739322604                                1096.8812989069634                                1095.1709526445907
55                                                768.2702456028334                                 906.9767553811695                                 1088.3902348856618                                1102.2887562157275                                1103.1958880575608                                1102.081287564362                                 1100.2378091134801
60                                                814.7877909340644                                 956.9689284567927                                 1099.8559877769267                                1109.0215678320042                                1108.5154315520676                                1107.1757427388175                                1105.238639170515
65                                                876.9454964337568                                 1000.379465501103                                 1109.7577930614657                                1115.4564555164761                                1113.888034296499                                 1112.3740285046456                                1110.360521148822
70                                                940.793230083891                                  1038.2506334764698                                1119.1825243901221                                1122.0762617361547                                1119.6301748865158                                1117.9677667030096                                1115.8851335335166
75                                                997.8777822943356                                 1070.6199497931166                                1128.436043687013                                 1129.121850968655                                 1125.9597602224462                                1124.1705704290266                                1122.0239227260113
80                                                1045.1749079633582                                1097.8176226942833                                1137.7727978281137                                1136.7167155565103                                1132.9621273727503                                1131.0619540516905                                1128.8541339064263
85                                                1082.2248725320023                                1120.5034431241593                                1147.3728236111142                                1144.9181355413125                                1140.661226074159                                 1138.6610625033245                                1136.393200722151
90                                                1112.8688036576991                                1140.501111250498                                 1157.406401088493                                 1153.7905670466089                                1149.0967414945198                                1147.0041372339351                                1144.6759586321068
95                                                1136.491994400204                                 1157.4452117839114                                1167.8298117937434                                1163.3172873590124                                1158.258616513233                                 1156.0820659771093                                1153.693668902049
100                                               1154.920168462465                                 1172.0112570965057                                1178.335934943665                                 1173.1391954495048                                1167.777246496135                                 1165.524844811996                                 1163.0774200198957
105                                               1171.9762550998112                                1185.6137197097783                                1188.2816825260297                                1182.504360548256                                 1176.8787069076752                                1174.5577131265054                                1172.054738796035
110                                               1185.3749641418153                                1197.4070490174204                                1198.0514829764452                                1191.8622756702734                                1186.0256383084347                                1183.6438112753208                                1181.0873981980626
115                                               1197.2182357013958                                1208.2295727514647                                1207.3996965600977                                1200.8735025851738                                1194.854055989595                                 1192.4169229185945                                1189.8101900665088
120                                               1208.4168069061561                                1218.44452494792                                  1216.2198914975393                                1209.3909681213481                                1203.2062511819286                                1200.7183723569651                                1198.0648755304924
125                                               1218.0207078135572                                1227.673024142688                                 1224.6230844458728                                1217.5680810815647                                1211.2467264470429                                1208.713670735675                                 1206.0165100890404
130                                               1227.411863825574                                 1236.5441617312508                                1232.566479448927                                 1225.2832336025317                                1218.829543179159                                 1216.2540528906666                                1213.5166886955344
135                                               1236.2486733027058                                1244.9024310185405                                1240.0606553474777                                1232.566486239919                                 1225.9907763117922                                1223.3762924595549                                1220.6020959692464
140                                               1244.4330431595708                                1252.7137731038551                                1247.1284896799261                                1239.44672078525                                  1232.7607602798803                                1230.110697726921                                 1227.302707330558
145                                               1252.498944406805                                 1260.3202207521254                                1253.9387289659353                                1246.0660596712746                                1239.2696533744675                                1236.5842168504173                                1233.7427402035346
150                                               1260.1803489643576                                1267.551370855399                                 1260.407302513002                                 1252.353696511198                                 1245.4526098275633                                1242.7336033728889                                1239.8603086015319
155                                               1267.4772568322278                                1274.4072234136756                                1266.534210321125                                 1258.30963130502                                  1251.3096296391677                                1248.5588572943352                                1245.6554125245489
160                                               1274.3896680104167                                1280.8877784269553                                1272.3194523903057                                1263.9338640527403                                1256.8407128092813                                1254.0599786147563                                1251.1280519725865
165                                               1280.94137597814                                  1287.01581490652                                  1277.7826919696035                                1269.245016978025                                 1262.0638792237255                                1259.2547967712499                                1256.2958782310052
170                                               1287.3211202622683                                1292.972025208163                                 1283.0799059252363                                1274.3908091114563                                1267.1220699250252                                1264.284742089807                                 1261.2989084539827
175                                               1293.3920469036102                                1298.6253903307447                                1288.0979963172117                                1279.2641302227703                                1271.9116391749249                                1269.0472642441518                                1266.0356169981005
180                                               1299.1541559021648                                1303.9759102742664                                1292.8369631455294                                1283.8649803119652                                1276.4325869734243                                1273.542363234284                                 1270.5060038633592
185                                               1304.6074472579326                                1309.0235850387276                                1297.2968064101892                                1288.1933593790418                                1280.6849133205242                                1277.7700390602035                                1274.7100690497587
190                                               1309.7717485314165                                1313.7915925894104                                1301.5012001869782                                1292.272529327175                                 1284.6916033704156                                1281.7531929789661                                1278.6706416959883
195                                               1314.8043399738376                                1318.4637899470408                                1305.637936846338                                 1296.2870130064912                                1288.6349846880603                                1285.6734870494142                                1282.5688117887753
200                                               1319.5911785681383                                1322.906863429907                                 1309.5708492068243                                1300.1030139461614                                1292.3828525914364                                1289.399199144233                                 1286.2732720070485
205                                               1324.132264314319                                 1327.1208130380096                                1313.299937268438                                 1303.7205321461856                                1295.9352070805448                                1292.930329263424                                 1289.7840223508074
210                                               1328.4275972123792                                1331.1056387713488                                1316.8252010311776                                1307.139567606564                                 1299.2920481553847                                1296.266877406987                                 1293.1010628200534
215                                               1332.4921897666018                                1334.877934236833                                 1320.1636062508169                                1310.377019297015                                 1302.4702235971931                                1299.4256778075055                                1296.2412188660346
220                                               1336.4451272494575                                1338.569326654202                                 1323.4497321828076                                1313.5669366989346                                1305.6033768395596                                1302.5402664251692                                1299.3379567918191
225                                               1340.2000616060927                                1342.084373873858                                 1326.585996173219                                 1316.6121212945513                                1308.5946037876706                                1305.513817093518                                 1302.2945009389305
230                                               1343.7569928365083                                1345.4230758957997                                1329.5723982220502                                1319.5125730838663                                1311.4439044415276                                1308.3463298125516                                1305.1108513073673
235                                               1347.1159209407047                                1348.5854327200277                                1332.4089383293021                                1322.2682920668785                                1314.15127880113                                  1311.0378045822713                                1307.7870078971305
240                                               1350.287589591198                                 1351.580724681177                                 1335.1038062085686                                1324.8873053162602                                1316.7246611340784                                1313.596143485293                                 1310.3308397977657
245                                               1353.3572219556204                                1354.482567157328                                 1337.7219659895222                                1327.4332868279253                                1319.2269892688223                                1316.0840290457236                                1312.8047678189505
250                                               1356.2630231990547                                1357.2375820558536                                1340.2163125506308                                1329.8600669490038                                1321.612627343341                                 1318.4560105212709                                1315.1635309860394
