% Model:              batchmodel_BILLETTA_r_0.0131664_COIL_kr_1.4848_COIL_kw_3.7744_FUNZ_freq_7167.5_FUNZ_I_eff_85.0125.mph
% Version:            COMSOL 5.6.0.401
% Date:               Jan 27 2022, 12:03
% Table:              Tabella delle sonde 1 - 
% Tempo (s)                                       Temperatura (degC), Punto: (0, 0.5)               Temperatura (degC), Punto: (0.5*BILLETTA_r, 0.5)  Temperatura (degC), Punto: (BILLETTA_r-10*FUNZ_depth_billetta, 0.5)Temperatura (degC), Punto: (BILLETTA_r-5*FUNZ_depth_billetta, 0.5)Temperatura (degC), Punto: (BILLETTA_r-2*FUNZ_depth_billetta, 0.5)Temperatura (degC), Punto: (BILLETTA_r-FUNZ_depth_billetta, 0.5)Temperatura (degC), Punto: (BILLETTA_r-0.01[mm], 0.5)
0                                                 20                                                20                                                20.00000000030127                                 20.001535550661856                                20.30965455789567                                 20.602526695552058                                20.869516735156708
5                                                 384.6757497160347                                 511.20865894996973                                831.3927779483114                                 991.5837798168992                                 1052.860865313426                                 1061.9274697929977                                1064.2856608961824
10                                                723.2034520386757                                 886.7411747565455                                 1128.399182241411                                 1149.5514660179247                                1152.9015219956163                                1152.505771028782                                 1151.414227507823
15                                                1031.4267574276819                                1131.0451701406964                                1189.3378309279187                                1193.5947053309842                                1192.5515984618955                                1191.4866625680052                                1190.095043092249
20                                                1219.643066497943                                 1254.81141832802                                  1284.8957445127176                                1285.7693151635954                                1283.3233826921241                                1281.8910786411839                                1280.1953990221332
25                                                1319.5609647765036                                1347.4733944368877                                1368.4405654143125                                1367.4127871752107                                1364.0048213024875                                1362.2758662509732                                1360.3053068249837
27.140124402130304                                1353.1720068970885                                1375.679757291481                                 1391.2314020992453                                1389.5770142759611                                1385.9312865473867                                1384.1288364191028                                1382.084256351814
