% Model:              batchmodel_BILLETTA_r_0.0257427_COIL_kr_1.4848_COIL_kw_5.8583_FUNZ_freq_6066_FUNZ_I_eff_127.5152.mph
% Version:            COMSOL 5.6.0.280
% Date:               Jan 27 2022, 12:26
% Table:              Tabella delle sonde 1 - 
% Tempo (s)                                       Temperatura (degC), Punto: (0, 0.5)               Temperatura (degC), Punto: (0.5*BILLETTA_r, 0.5)  Temperatura (degC), Punto: (BILLETTA_r-10*FUNZ_depth_billetta, 0.5)Temperatura (degC), Punto: (BILLETTA_r-5*FUNZ_depth_billetta, 0.5)Temperatura (degC), Punto: (BILLETTA_r-2*FUNZ_depth_billetta, 0.5)Temperatura (degC), Punto: (BILLETTA_r-FUNZ_depth_billetta, 0.5)Temperatura (degC), Punto: (BILLETTA_r-0.01[mm], 0.5)
0                                                 19.999999999999943                                19.999999999999943                                20.00000000325724                                 20.020583982826963                                20.519742895301533                                20.878270814624102                                21.20130857212564
5                                                 87.58824086842577                                 246.33844135271738                                1101.8161173239564                                1216.3403760367328                                1243.2686912950471                                1245.8854326668247                                1245.4909505949536
10                                                312.83907190915727                                525.881307012593                                  1254.2010822867405                                1285.0156069575323                                1290.3960149686882                                1289.9666382221922                                1288.4731482695047
15                                                507.2542934889103                                 720.88119756464                                   1307.4890128581496                                1323.9258335819432                                1325.6198249437516                                1324.6265019834923                                1322.8687571206897
20                                                651.1496500209048                                 917.1833871000664                                 1367.2303759420465                                1379.2361727593193                                1379.6020390380204                                1378.3231688661917                                1376.3415259840867
21.139800832213123                                677.297750834523                                  964.8097972094143                                 1380.5502507275605                                1391.4375366128738                                1391.4602649312424                                1390.113499870536                                 1388.0805801119682
