% Model:              batchmodel_BILLETTA_r_0.0445341_COIL_kr_1.9397_COIL_kw_3.7744_FUNZ_freq_4639.7_FUNZ_I_eff_61.5962.mph
% Version:            COMSOL 5.6.0.401
% Date:               Jan 27 2022, 16:00
% Table:              Tabella delle sonde 1 - 
% Tempo (s)                                       Temperatura (degC), Punto: (0, 0.5)               Temperatura (degC), Punto: (0.5*BILLETTA_r, 0.5)  Temperatura (degC), Punto: (BILLETTA_r-10*FUNZ_depth_billetta, 0.5)Temperatura (degC), Punto: (BILLETTA_r-5*FUNZ_depth_billetta, 0.5)Temperatura (degC), Punto: (BILLETTA_r-2*FUNZ_depth_billetta, 0.5)Temperatura (degC), Punto: (BILLETTA_r-FUNZ_depth_billetta, 0.5)Temperatura (degC), Punto: (BILLETTA_r-0.01[mm], 0.5)
0                                                 20                                                19.999999999999943                                20.000000000012562                                20.000052087748145                                20.10659216757756                                 20.254243582260358                                20.415409324574796
5                                                 20.64568403220494                                 32.10275628658064                                 274.06892135475243                                326.32191430366277                                359.112102994574                                  366.63180794217556                                369.58996642930856
10                                                31.36361305101468                                 84.32039565158101                                 477.0185645366681                                 548.0936039540268                                 587.520330358005                                  595.6536395722416                                 598.6582632287784
15                                                62.11184502698535                                 155.32757943482574                                653.2364616192691                                 746.4539087062991                                 796.0485216812323                                 805.6008623334757                                 808.7975445001754
20                                                109.9053496638706                                 231.27403679782816                                823.9236928778142                                 945.6853437162673                                 1000.0926357949669                                1009.2318352838669                                1011.732427810737
25                                                166.6013464851103                                 305.3358057770986                                 949.9115482287385                                 1044.6658809977826                                1075.0140058293114                                1078.7384659406944                                1078.9988182154507
30                                                225.65977946764383                                373.6608153209422                                 1003.318880229573                                 1068.785942529019                                 1086.42415349779                                  1088.1382269192222                                1087.681845933132
35                                                282.7905447980794                                 434.5936385686956                                 1040.9563214697714                                1089.250039892337                                 1100.4684266794807                                1101.1496824622031                                1100.3026737792002
40                                                336.1107325375102                                 486.82760970674747                                1055.0036248672113                                1091.3354872630548                                1099.6724747039425                                1099.977027909119                                 1099.0124567547446
45                                                385.46261000484094                                532.9632894713263                                 1065.7349848097224                                1094.7282798088695                                1101.108632229279                                 1101.1378812767043                                1100.079771606905
50                                                430.68377314293116                                574.031807438418                                  1076.3116082890701                                1099.8920583319477                                1104.6532069605937                                1104.4371716977762                                1103.288313781431
55                                                472.93294116427035                                611.5779397602371                                 1086.0003321223467                                1105.1719195496507                                1108.5794464273567                                1108.1537513768112                                1106.924823510375
60                                                511.7211941606804                                 645.0116036051899                                 1094.125788863647                                 1110.1072628617558                                1112.5105989739918                                1111.9250811127522                                1110.63254789861
65                                                547.4110302844028                                 675.0759539497164                                 1101.3586301427254                                1114.8106609620695                                1116.4141645378086                                1115.699219856383                                 1114.3533408834296
70                                                580.0057413825355                                 702.0176744538787                                 1108.0942595923716                                1119.3418791826543                                1120.2652829372746                                1119.4402090341268                                1118.0477464883224
75                                                609.5686920635545                                 726.3492780603437                                 1114.230910444906                                 1123.690396801856                                 1124.063708035726                                 1123.1482095757306                                1121.7159324657955
80                                                636.1990280686323                                 749.0766321023975                                 1119.9807012021247                                1127.8956479902336                                1127.7860266609855                                1126.7901398836811                                1125.3215862454372
85                                                659.9871790195535                                 770.6960703704189                                 1125.4023538474821                                1132.0405492279342                                1131.5268014937255                                1130.4621950133665                                1128.9612188910828
90                                                681.3308510651256                                 794.0496318072729                                 1130.9650555701937                                1136.4162720360437                                1135.5204631857596                                1134.3896254472547                                1132.856363008274
95                                                700.0525829535203                                 817.8691645625089                                 1136.4594494211906                                1140.8928921909014                                1139.662405969581                                 1138.4719217194665                                1136.908168092391
100                                               716.1523746847375                                 842.1546686361277                                 1141.8855354004731                                1145.4704096925084                                1143.952629845192                                 1142.709083830001                                 1141.1166341434327
105                                               729.9143545453726                                 866.7573305108627                                 1147.2574458053127                                1150.1538013087343                                1148.3937394574027                                1147.1033771120892                                1145.4839041940377
110                                               746.0344237749628                                 889.217649977979                                  1152.8087507355785                                1155.0253200623024                                1153.0287828073547                                1151.6922416293369                                1150.0453969972582
115                                               761.4873551428565                                 911.1201039303495                                 1158.3889779836268                                1160.0319763200296                                1157.8300272025076                                1156.4515574750085                                1154.778294829564
120                                               776.2731486490535                                 932.464692367973                                  1163.9981275494574                                1165.1737700819162                                1162.797472642861                                 1161.3813246491036                                1159.682597690954
125                                               793.0494373263067                                 952.7586308540439                                 1169.8093233739523                                1170.615742757017                                 1168.0926034723025                                1166.642083069099                                 1164.9180469743942
130                                               817.9336792511491                                 971.290584773211                                  1176.1761503892694                                1176.6282169245592                                1173.95883067764                                  1172.4725792171312                                1170.721083618821
135                                               842.817921175991                                  989.8225386923785                                 1182.542977404586                                 1182.6406910921014                                1179.8250578829775                                1178.3030753651637                                1176.5241202632478
140                                               867.7021631008334                                 1008.3544926115459                                1188.9098044199031                                1188.6531652596436                                1185.691285088315                                 1184.1335715131963                                1182.3271569076746
145                                               892.4000870428707                                 1026.0260068657012                                1195.7018407540777                                1195.1209320048442                                1192.020129872903                                 1190.4269968957828                                1188.5922340610168
150                                               916.8354481984721                                 1042.4849734494433                                1203.0930900139037                                1202.2303055667044                                1199.0009040034074                                1197.3727908147698                                1195.5084273419657
155                                               941.2708093540733                                 1058.9439400331858                                1210.4843392737303                                1209.3396791285645                                1205.9816781339118                                1204.3185847337572                                1202.4246206229145
160                                               965.7061705096745                                 1075.4029066169282                                1217.8755885335568                                1216.4490526904247                                1212.9624522644167                                1211.2643786527442                                1209.3408139038634
165                                               987.2902648915536                                 1090.4637027742488                                1225.5272806762541                                1223.8432446928769                                1220.234617462365                                 1218.5022626832351                                1216.5490008509082
170                                               1006.8843685145522                                1104.5486708352428                                1233.360744280994                                 1231.4362206428577                                1227.7101538554525                                1225.9440057941915                                1223.9609795660685
175                                               1026.4784721375509                                1118.6336388962363                                1241.1942078857337                                1239.0291965928386                                1235.1856902485397                                1233.385748905148                                 1231.3729582812284
180                                               1046.0725757605492                                1132.71860695723                                  1249.0276714904735                                1246.622172542819                                 1242.6612266416273                                1240.8274920161043                                1238.7849369963888
185                                               1065.6666793835475                                1146.803575018224                                 1256.8611350952133                                1254.2151484928004                                1250.136763034715                                 1248.2692351270607                                1246.1969157115486
190                                               1083.066806411267                                 1159.8137211061685                                1264.5619653621543                                1261.6916728260871                                1257.5007645929286                                1255.600120536535                                 1253.4981713047841
195                                               1098.9356866296584                                1172.0737143801007                                1272.1702265580539                                1269.0869218317853                                1264.7869224036763                                1262.8536347917097                                1260.722149671119
200                                               1114.80456684805                                  1184.3337076540333                                1279.778487753953                                 1276.482170837483                                 1272.073080214424                                 1270.1071490468848                                1267.9461280374549
205                                               1130.6734470664414                                1196.5937009279655                                1287.386748949852                                 1283.877419843181                                 1279.3592380251716                                1277.36066330206                                  1275.1701064037902
210                                               1146.542327284833                                 1208.8536942018977                                1294.9950101457512                                1291.2726688488792                                1286.6453958359202                                1284.614177557235                                 1282.3940847701256
215                                               1160.9111788032437                                1220.2469630426663                                1302.3575010334303                                1298.4341968031467                                1293.7019292515838                                1291.638832272764                                 1289.389627696291
220                                               1174.2331120611361                                1231.0353170335202                                1309.548460920687                                 1305.432603320729                                 1300.5982004187472                                1298.5037585569953                                1296.225738183819
225                                               1187.555045319029                                 1241.823671024375                                 1316.7394208079445                                1312.4310098383112                                1307.494471585911                                 1305.3686848412267                                1303.061848671347
230                                               1200.8769785769214                                1252.6120250152294                                1323.9303806952012                                1319.4294163558934                                1314.3907427530744                                1312.2336111254585                                1309.897959158875
235                                               1214.1989118348138                                1263.4003790060842                                1331.1213405824587                                1326.4278228734765                                1321.2870139202378                                1319.0985374096904                                1316.734069646403
240                                               1226.741932500443                                 1273.7160834643582                                1338.0891070089328                                1333.2109797756411                                1327.9712463697947                                1325.7521332636566                                1323.3593328993543
245                                               1238.3653236824503                                1283.4737504099526                                1344.7933582616565                                1339.7400004696588                                1334.4051335838044                                1332.1562201272836                                1329.7356576508837
250                                               1249.5154451674234                                1292.9442340395894                                1351.3619964781892                                1346.1382348324669                                1340.7101854180323                                1338.431901968705                                 1335.9838709713995
