% Model:              batchmodel_BILLETTA_r_0.0542379_COIL_kr_2.4069_COIL_kw_5.3284_FUNZ_freq_2540.9_FUNZ_I_eff_61.5962.mph
% Version:            COMSOL 5.6.0.401
% Date:               Jan 28 2022, 03:12
% Table:              Tabella delle sonde 1 - 
% Tempo (s)                                       Temperatura (degC), Punto: (0, 0.5)               Temperatura (degC), Punto: (0.5*BILLETTA_r, 0.5)  Temperatura (degC), Punto: (BILLETTA_r-10*FUNZ_depth_billetta, 0.5)Temperatura (degC), Punto: (BILLETTA_r-5*FUNZ_depth_billetta, 0.5)Temperatura (degC), Punto: (BILLETTA_r-2*FUNZ_depth_billetta, 0.5)Temperatura (degC), Punto: (BILLETTA_r-FUNZ_depth_billetta, 0.5)Temperatura (degC), Punto: (BILLETTA_r-0.01[mm], 0.5)
0                                                 20                                                20                                                20.00000000000489                                 20.000016099264542                                20.057329078395924                                20.138446153421967                                20.235895684867216
5                                                 20.041736761533116                                22.828239705930628                                156.37266436108155                                195.7859865360814                                 221.6601675266993                                 227.8681162946824                                 230.4013405039194
10                                                21.976149761391753                                42.65788958638922                                 284.87919934490526                                338.1675921366259                                 370.5608216788776                                 377.7120725015619                                 380.4926429063647
15                                                30.193995653502554                                76.38452515761747                                 402.24843958435974                                466.3520430143343                                 504.7243158123057                                 513.0060604501326                                 516.120258255931
20                                                46.59191135497309                                 118.54600102532186                                519.3339764020325                                 597.1575970340816                                 640.5598711699599                                 649.3366906030365                                 652.4418143950348
25                                                70.86393502670234                                 165.50606656203524                                620.6986837129177                                 707.4193711615769                                 754.5510259925965                                 763.7879825845392                                 766.8707079388963
30                                                101.1178747506151                                 213.60511506308524                                709.2495058506685                                 807.3823842837656                                 861.3611011292002                                 871.4329476434972                                 874.4968570631689
35                                                136.7472852111802                                 261.60321376802233                                807.3210822802195                                 928.0326024864813                                 982.204733638721                                  991.062724937953                                  993.2090650765987
40                                                174.36626833436566                                308.3866156098878                                 895.5667287089979                                 1008.5632100583917                                1051.774161794725                                 1057.893655682201                                 1058.7619439462737
45                                                212.68278403332477                                353.29781939281247                                952.0566663771828                                 1043.9690284526832                                1072.989955570475                                 1076.2795239172128                                1076.0375635535233
50                                                250.7468223273895                                 395.74317115676865                                986.394112002691                                  1059.7467853837893                                1079.9385216797996                                1081.7754528950804                                1081.0070697590486
55                                                286.8422286036688                                 432.8382126358731                                 1006.0328034363994                                1067.4855728951447                                1083.5469690166428                                1084.756719363395                                 1083.7646026712177
60                                                321.9879013510139                                 468.2257683258049                                 1023.3225630211883                                1074.330354365517                                 1086.8568230391102                                1087.5298946253556                                1086.3456528855668
65                                                355.50939586022275                                500.6932825765208                                 1036.5953179666226                                1079.646259459213                                 1089.6560403950934                                1089.9472045855146                                1088.6248928042128
70                                                386.90741281775604                                530.2752560779687                                 1047.0721441303062                                1083.9557352157763                                1092.0629100190145                                1092.0654808314857                                1090.6379492933274
75                                                417.4142598663799                                 558.6580376680464                                 1056.4297837386798                                1087.8723128410206                                1094.3234654515877                                1094.074776498418                                 1092.5551150184092
80                                                446.16647888762157                                584.861911816984                                  1064.4208197905264                                1091.470517412702                                 1096.579248373287                                 1096.1245757262404                                1094.527798387223
85                                                473.60153160924847                                609.4301210804518                                 1071.3859722240213                                1094.8297253136857                                1098.8314486607242                                1098.204780216366                                 1096.5421578082914
90                                                499.7194180312607                                 632.3626654584504                                 1077.3252410391651                                1097.9499365439706                                1101.080066313898                                 1100.3153899687954                                1098.5981932816153
95                                                524.441995125981                                  653.7538850926464                                 1082.8497295426973                                1100.9093467713496                                1103.242213583504                                 1102.351175212656                                 1100.5838796325183
100                                               547.7860741700192                                 673.5834841452145                                 1087.8279682096677                                1103.6911333944968                                1105.3357225004024                                1104.334774522857                                 1102.5233173630513
105                                               569.7656795469024                                 691.8345313253135                                 1092.1502819045813                                1106.2812625825281                                1107.3754689866123                                1106.2850735595666                                1104.436611709229
110                                               590.466843371354                                  709.1940361345129                                 1096.2249429284657                                1108.7964636722495                                1109.3943111484878                                1108.2227084611623                                1106.3401107551854
115                                               609.9459969778098                                 726.1126310263861                                 1100.3197507052255                                1111.3133033302474                                1111.4138017142704                                1110.161215159313                                 1108.2445377547447
120                                               628.1463266844066                                 742.1366303117593                                 1104.1650913505714                                1113.7546961166631                                1113.412241926384                                 1112.086966010384                                 1110.1390967992616
125                                               645.0678324911443                                 757.2660339906323                                 1107.760964864503                                 1116.120642031498                                 1115.3896317848298                                1113.999961014375                                 1112.0237878887365
130                                               660.710514398023                                  771.500842063005                                  1111.1073712470202                                1118.41114107475                                  1117.3459712896074                                1115.9002001712852                                1113.8986110231685
135                                               675.1326514235698                                 786.0064840436409                                 1114.3415735092085                                1120.6733428380608                                1119.2982165815315                                1117.7999111708318                                1115.7740901788675
140                                               688.358685348949                                  801.2717322880488                                 1117.5211387234654                                1122.927021504831                                 1121.253478938274                                 1119.7042222139316                                1117.6546390321846
145                                               700.3458663997789                                 816.4417019667814                                 1120.5453794914256                                1125.1375911390637                                1123.1993204154                                   1121.6041638465708                                1119.5325378647008
150                                               711.0941945760595                                 831.5163930798386                                 1123.4142958130892                                1127.3050517407587                                1125.1357410129085                                1123.4997360687498                                1121.407786676416
155                                               720.6036698777908                                 846.4958056272204                                 1126.1278876884558                                1129.4294033099159                                1127.0627407307993                                1125.3909388804686                                1123.2803854673307
160                                               729.8710163023162                                 861.1358225315527                                 1128.833248160161                                 1131.5747320720661                                1129.019203891784                                 1127.312792996437                                 1125.183924881493
165                                               739.314252382548                                  875.3340629303149                                 1131.592066941756                                 1133.7679153072263                                1131.021438287762                                 1129.2799858404787                                1127.1324925818685
170                                               748.2022449064975                                 889.2695955560326                                 1134.296445950109                                 1135.9619434439996                                1133.0409208573515                                1131.2668284478455                                1129.1014486124204
175                                               756.5349938741643                                 902.942420408706                                  1136.9463851852197                                1138.1568164823852                                1135.0776516005517                                1133.2733208185373                                1131.0907929731484
180                                               764.3124992855486                                 916.3525374883349                                 1139.5418846470893                                1140.3525344223835                                1137.1316305173632                                1135.2994629525538                                1133.1005256640524
185                                               773.3585597256784                                 929.3240578546621                                 1142.1688839534554                                1142.5958331191055                                1139.2376762563958                                1137.3781922675648                                1135.1628266115677
190                                               784.4380625764899                                 941.7832150116891                                 1144.8634255323345                                1144.9063132379706                                1141.4103914964749                                1139.523322468316                                 1137.2911918343243
195                                               796.213185410665                                  953.8590298781318                                 1147.5624695563297                                1147.2496923337344                                1143.6242354956657                                1141.7106927640175                                1139.4620161888338
200                                               808.6839282282034                                 965.5515024539906                                 1150.2660160254413                                1149.6259704063973                                1145.8792082539685                                1143.9403031546694                                1141.6752996750956
205                                               821.8502910291053                                 976.860632739265                                  1152.974064939669                                 1152.0351474559593                                1148.175309771384                                 1146.212153640271                                 1143.9310422931103
210                                               835.9655860731169                                 987.9062590266989                                 1155.7541390410574                                1154.525032636384                                 1150.5541093758438                                1148.5667451154413                                1146.2692278164736
215                                               851.1360506129482                                 998.738640593136                                  1158.6345568587494                                1157.1156767465413                                1153.0330409302064                                1151.0210633501579                                1148.7066251385022
220                                               867.175870916214                                  1009.269871703261                                 1161.5657880118133                                1159.77201003754                                  1155.5816118243479                                1153.5453994688942                                1151.2139047107025
225                                               884.0850469829139                                 1019.499952357074                                 1164.5478325002491                                1162.4940325093817                                1158.1998220582682                                1156.1397534716511                                1153.7910665330733
230                                               901.8635788130483                                 1029.428882554575                                 1167.5806903240568                                1165.2817441620646                                1160.8876716319678                                1158.8041253584279                                1156.4381106056148
235                                               919.1321886419645                                 1039.1733644675692                                1170.6993518012187                                1168.1620245141894                                1163.6694096288325                                1161.5622822818227                                1159.178535587202
240                                               935.3124177697667                                 1048.7823421074118                                1173.9184916074005                                1171.1461466332848                                1166.5552059316879                                1164.4241920065206                                1162.0221966382737
245                                               951.4160164753511                                 1058.1702101972724                                1177.2124430749564                                1174.2143934173023                                1169.5272729581416                                1167.372420463846                                 1164.9518566400438
250                                               967.4429847587181                                 1067.3369687371505                                1180.5812062038854                                1177.3667648662417                                1172.5856107081945                                1170.4069676538002                                1167.9675155925115
