% Model:              batchmodel_BILLETTA_r_0.0131664_COIL_kr_2.4069_COIL_kw_3.7744_FUNZ_freq_2540.9_FUNZ_I_eff_61.5962.mph
% Version:            COMSOL 5.6.0.401
% Date:               Jan 27 2022, 13:13
% Table:              Tabella delle sonde 1 - 
% Tempo (s)                                       Temperatura (degC), Punto: (0, 0.5)               Temperatura (degC), Punto: (0.5*BILLETTA_r, 0.5)  Temperatura (degC), Punto: (BILLETTA_r-10*FUNZ_depth_billetta, 0.5)Temperatura (degC), Punto: (BILLETTA_r-5*FUNZ_depth_billetta, 0.5)Temperatura (degC), Punto: (BILLETTA_r-2*FUNZ_depth_billetta, 0.5)Temperatura (degC), Punto: (BILLETTA_r-FUNZ_depth_billetta, 0.5)Temperatura (degC), Punto: (BILLETTA_r-0.01[mm], 0.5)
0                                                 20                                                20                                                20.000000000003354                                20.000009435709217                                20.028707225248922                                20.093015935368157                                20.16106434443941
5                                                 156.7201072100632                                 195.85410143787897                                237.6266974891479                                 278.7772919817895                                 305.35391254616377                                311.3562897791643                                 313.71924264253585
10                                                370.17288344380086                                424.4498429490616                                 483.98409884971                                   543.782905349077                                  578.0328467060999                                 584.8874675105479                                 587.3202153893576
15                                                566.2255299154309                                 627.7359397647353                                 695.7020738323572                                 768.3856478683366                                 809.4272061673463                                 817.0149169867456                                 819.2523810036811
20                                                706.5648316435039                                 781.577505172004                                  895.2033321802161                                 993.124987282181                                  1031.4997730116665                                1036.9978761283369                                1037.7267102802475
25                                                850.0905619947081                                 959.1994772692661                                 1038.9365549422291                                1076.5179973018062                                1084.6152665783507                                1084.6045306526885                                1083.194432723877
30                                                1027.912184679                                    1072.6738837654239                                1094.8325266069778                                1102.023344895088                                 1101.1608942335793                                1099.8009750459546                                1097.883385421594
35                                                1113.7756615814042                                1123.3270350924204                                1125.8620188339637                                1123.7788786671786                                1119.9288592156076                                1118.0619684840244                                1115.9101257537736
40                                                1139.6948805819497                                1142.0541693115338                                1141.0057749148773                                1136.9095624743222                                1132.2675079120254                                1130.2381839865907                                1127.9894703375703
45                                                1150.0392273749421                                1150.9093853738764                                1148.7398009700887                                1143.9642401704205                                1139.0226907889028                                1136.924665540686                                 1134.6293606686932
50                                                1155.560605999036                                 1155.8078357517174                                1153.0835176059845                                1147.9537332947511                                1142.8565583989443                                1140.7222623130888                                1138.4014608544885
55                                                1159.3480367306533                                1159.027833271768                                 1155.9059225430124                                1150.5228156709122                                1145.319128417089                                 1143.1607894673693                                1140.823381370437
60                                                1160.7333061855097                                1160.2031335866695                                1156.9403329671422                                1151.4684757972236                                1146.2266209758823                                1144.0595340455197                                1141.7160361044776
65                                                1162.045175896089                                 1161.320496807189                                 1157.9251222360222                                1152.3699878894204                                1147.092029126362                                 1144.9166248288138                                1142.567325978771
70                                                1163.3570456066682                                1162.4378600277087                                1158.9099115049016                                1153.2714999816167                                1147.9574372768416                                1145.7737156121084                                1143.4186158530642
75                                                1164.1529948275133                                1163.1256804088516                                1159.5225908033026                                1153.8365397506645                                1148.5014499249464                                1146.3127673025128                                1143.954106683088
80                                                1164.7997620542246                                1163.6892954935993                                1160.0276719183826                                1154.3042862097218                                1148.9525288305376                                1146.7598557795277                                1144.398282025344
85                                                1165.4465292809368                                1164.2529105783465                                1160.532753033463                                 1154.7720326687795                                1149.4036077361293                                1147.206944256542                                 1144.8424573675998
90                                                1165.8332149489434                                1164.5939478133973                                1160.8406510252944                                1155.0585298831993                                1149.6804108689134                                1147.4813844944338                                1145.1151377733645
95                                                1166.0501190490554                                1164.7896859488565                                1161.0198276268256                                1155.226707363273                                 1149.8434465585124                                1147.6431197451716                                1145.2758660693817
100                                               1166.267023149167                                 1164.9854240843156                                1161.1990042283574                                1155.3948848433465                                1150.0064822481118                                1147.8048549959099                                1145.4365943653984
105                                               1166.4839272492786                                1165.1811622197743                                1161.378180829889                                 1155.5630623234201                                1150.1695179377102                                1147.9665902466481                                1145.597322661415
110                                               1166.7008313493907                                1165.3769003552334                                1161.5573574314208                                1155.7312398034937                                1150.3325536273096                                1148.1283254973864                                1145.7580509574323
115                                               1166.7945828432935                                1165.4644702588448                                1161.6391249257645                                1155.8089009910736                                1150.4081791953772                                1148.2034037803396                                1145.83268027978
120                                               1166.8079401613209                                1165.481427804967                                 1161.6573036326986                                1155.8274730293265                                1150.4267433264195                                1148.2219122859788                                1145.851104084073
125                                               1166.8212974793487                                1165.4983853510898                                1161.6754823396323                                1155.8460450675789                                1150.4453074574621                                1148.2404207916175                                1145.869527888366
130                                               1166.8346547973765                                1165.5153428972121                                1161.6936610465664                                1155.8646171058317                                1150.4638715885044                                1148.2589292972561                                1145.887951692659
135                                               1166.848012115404                                 1165.5323004433349                                1161.7118397535005                                1155.883189144084                                 1150.4824357195466                                1148.2774378028948                                1145.9063754969516
140                                               1166.8283946945385                                1165.518218860499                                 1161.700929589575                                 1155.8740662832097                                1150.4740032887535                                1148.2691402831201                                1145.8981519618005
145                                               1166.7872513227435                                1165.4838748953289                                1161.6710301742496                                1155.8468641574304                                1150.4479474685158                                1148.2433437563182                                1145.87253301002
150                                               1166.746107950949                                 1165.4495309301587                                1161.6411307589237                                1155.8196620316517                                1150.4218916482787                                1148.2175472295153                                1145.8469140582401
155                                               1166.7049645791544                                1165.4151869649886                                1161.6112313435983                                1155.792459905872                                 1150.3958358280415                                1148.1917507027124                                1145.8212951064602
160                                               1166.66382120736                                  1165.380842999819                                 1161.5813319282724                                1155.7652577800927                                1150.3697800078044                                1148.16595417591                                  1145.7956761546807
165                                               1166.6263878689706                                1165.3484151807002                                1161.5524161941476                                1155.7385467668478                                1150.3440404198932                                1148.1404450048703                                1145.7703340650746
170                                               1166.5913764450438                                1165.3172382241282                                1161.5241426083448                                1155.7121563524815                                1150.3185072688425                                1148.1151234200338                                1145.745172711444
175                                               1166.556365021117                                 1165.2860612675563                                1161.4958690225426                                1155.6857659381153                                1150.292974117791                                 1148.0898018351968                                1145.7200113578128
180                                               1166.5213535971898                                1165.2548843109844                                1161.4675954367399                                1155.6593755237486                                1150.2674409667397                                1148.0644802503598                                1145.6948500041817
185                                               1166.486342173263                                 1165.2237073544125                                1161.4393218509376                                1155.6329851093824                                1150.241907815689                                 1148.0391586655232                                1145.669688650551
190                                               1166.458428548393                                 1165.1986138486982                                1161.4164378388768                                1155.6115566833037                                1150.2211506609738                                1148.0185694711004                                1145.6492284087722
195                                               1166.4351483756536                                1165.177491627338                                 1161.3970721473192                                1155.5933674494058                                1150.2035112826597                                1148.0010695870783                                1145.6318370587096
200                                               1166.4118682029143                                1165.1563694059778                                1161.3777064557612                                1155.5751782155075                                1150.1858719043462                                1147.9835697030567                                1145.6144457086475
205                                               1166.388588030175                                 1165.1352471846176                                1161.3583407642036                                1155.5569889816097                                1150.1682325260326                                1147.9660698190341                                1145.5970543585854
210                                               1166.3653078574357                                1165.1141249632574                                1161.338975072646                                 1155.5387997477114                                1150.1505931477186                                1147.948569935012                                 1145.5796630085229
215                                               1166.3498319736732                                1165.0999403947862                                1161.325895254366                                 1155.5264773110835                                1150.138630504126                                 1147.9366998933915                                1145.5678659234136
220                                               1166.3394507395492                                1165.0902847348266                                1161.316918862051                                 1155.5179847270747                                1150.1303736400837                                1147.9285050199533                                1145.5597207814862
225                                               1166.3290695054243                                1165.0806290748674                                1161.3079424697357                                1155.5094921430664                                1150.1221167760405                                1147.9203101465164                                1145.5515756395585
230                                               1166.3186882712998                                1165.0709734149077                                1161.2989660774201                                1155.5009995590576                                1150.1138599119981                                1147.9121152730786                                1145.543430497631
235                                               1166.3083070371758                                1165.0613177549485                                1161.289989685105                                 1155.4925069750489                                1150.1056030479554                                1147.9039203996413                                1145.5352853557033
240                                               1166.30281135296                                  1165.0560676447813                                1161.285038685783                                 1155.4877900014812                                1150.1010063183421                                1147.8993565484184                                1145.5307486603488
245                                               1166.302817239402                                 1165.0557785817673                                1161.284620642708                                 1155.4873247064352                                1150.100531230827                                 1147.8988815563098                                1145.5302754018967
250                                               1166.3057044085813                                1165.0580877185062                                1161.286576599604                                 1155.489086100582                                 1150.1022147298258                                1147.9005479816096                                1145.531930246731
