% Model:              batchmodel_BILLETTA_r_0.0257427_COIL_kr_1.9397_COIL_kw_5.8583_FUNZ_freq_8940.8_FUNZ_I_eff_85.0125.mph
% Version:            COMSOL 5.6.0.280
% Date:               Jan 27 2022, 14:18
% Table:              Tabella delle sonde 1 - 
% Tempo (s)                                       Temperatura (degC), Punto: (0, 0.5)               Temperatura (degC), Punto: (0.5*BILLETTA_r, 0.5)  Temperatura (degC), Punto: (BILLETTA_r-10*FUNZ_depth_billetta, 0.5)Temperatura (degC), Punto: (BILLETTA_r-5*FUNZ_depth_billetta, 0.5)Temperatura (degC), Punto: (BILLETTA_r-2*FUNZ_depth_billetta, 0.5)Temperatura (degC), Punto: (BILLETTA_r-FUNZ_depth_billetta, 0.5)Temperatura (degC), Punto: (BILLETTA_r-0.01[mm], 0.5)
0                                                 20                                                20                                                20.000000000662965                                20.002427057467685                                20.3896448106575                                  20.76517059368166                                 21.098938763188414
5                                                 66.05350126717195                                 187.31895919162355                                848.2015254890656                                 1024.236297410595                                 1089.0793798405857                                1098.6069437564456                                1101.1430103378138
10                                                259.5546129498049                                 435.5228256388731                                 1104.0358132543238                                1147.7759675305992                                1158.014873639485                                 1158.6888537735217                                1158.0491756874408
15                                                437.8586987325689                                 604.3507995020955                                 1144.044065607905                                 1164.3675778502793                                1168.0812761471143                                1167.83138810042                                  1166.871150582408
20                                                571.3347977035794                                 722.1059936647447                                 1174.803812033901                                 1186.5806324494047                                1187.93421648017                                  1187.3213290325912                                1186.2048550542136
25                                                667.7658821069405                                 822.0746135138735                                 1205.0434713421678                                1213.3383142968846                                1213.666859302245                                 1212.8689284969864                                1211.6449357912397
30                                                730.2125382628268                                 926.1123501288422                                 1240.4754859492                                   1247.1107716780302                                1246.8662608727632                                1245.9358608298853                                1244.6106690299243
35                                                786.4063823070516                                 1020.7385084963076                                1283.949525878234                                 1289.5622675984928                                1288.8533743428502                                1287.786951514026                                 1286.3401725354051
40                                                891.1508844333165                                 1106.655898827516                                 1334.3749536035589                                1338.9725515215791                                1337.7304607744882                                1336.5004565777635                                1334.9054033451798
44.27865404588802                                 1004.8283997074046                                1175.843158457074                                 1376.1637339410154                                1379.3433270090864                                1377.5086877180438                                1376.1225187017071                                1374.3957955960636
