% Model:              batchmodel_BILLETTA_r_0.0335556_COIL_kr_1.9397_COIL_kw_4.5299_FUNZ_freq_6066_FUNZ_I_eff_85.0125.mph
% Version:            COMSOL 5.6.0.280
% Date:               Jan 27 2022, 18:39
% Table:              Tabella delle sonde 1 - 
% Tempo (s)                                       Temperatura (degC), Punto: (0, 0.5)               Temperatura (degC), Punto: (0.5*BILLETTA_r, 0.5)  Temperatura (degC), Punto: (BILLETTA_r-10*FUNZ_depth_billetta, 0.5)Temperatura (degC), Punto: (BILLETTA_r-5*FUNZ_depth_billetta, 0.5)Temperatura (degC), Punto: (BILLETTA_r-2*FUNZ_depth_billetta, 0.5)Temperatura (degC), Punto: (BILLETTA_r-FUNZ_depth_billetta, 0.5)Temperatura (degC), Punto: (BILLETTA_r-0.01[mm], 0.5)
0                                                 20                                                20                                                20.000000000172406                                20.001006728200252                                20.260608561007587                                20.519269324734523                                20.76797019226501
5                                                 28.653657232541775                                88.54212667199886                                 614.8725329035083                                 748.2102259731981                                 821.8221223401591                                 836.3314718485641                                 841.3174587580387
10                                                106.91169472574853                                249.11332302929793                                992.0517159279378                                 1104.1994607753554                                1133.051560531338                                 1136.103997864689                                 1136.0826948605659
15                                                222.38665955115027                                390.2781979277222                                 1087.3818325709867                                1137.424188288136                                 1148.6771673607504                                1149.3430610213163                                1148.5228027997018
20                                                332.1573857929004                                 502.0340569567112                                 1123.9554673148496                                1152.7579496314415                                1158.3276138231845                                1158.1838851675234                                1157.077317647258
25                                                427.59256349589225                                591.0841774153241                                 1143.8063960161298                                1162.3595430615132                                1165.1751410413121                                1164.6351020025095                                1163.383586468924
30                                                509.46585980788564                                664.5291611339027                                 1162.1374237253394                                1175.0824167559595                                1176.334039347837                                 1175.5521472254632                                1174.195839636895
35                                                579.288253974144                                  727.7326813395135                                 1179.8384939794519                                1189.4454132292417                                1189.7328964462536                                1188.7883144326406                                1187.3478642468244
40                                                638.164058445426                                  787.4083808469085                                 1198.803022615607                                 1206.1892947516812                                1205.7982625953064                                1204.7260429572352                                1203.2072294070317
45                                                685.7542351478057                                 848.2038270589707                                 1219.5841904698905                                1225.5613869361714                                1224.6974085468282                                1223.5216645369146                                1221.927346956145
50                                                722.0052346992557                                 911.7928706064291                                 1242.4249106806424                                1247.6592003065189                                1246.4894273942637                                1245.2289979085535                                1243.5605091571138
55                                                760.0541211245587                                 971.3748327395323                                 1268.1497575971462                                1272.6804158539044                                1271.1853262546683                                1269.8291503456703                                1268.074269159969
60                                                802.2919555587076                                 1027.527442379669                                 1296.779349286412                                 1300.7327416641883                                1298.9162924333382                                1297.456494557562                                 1295.6039289610908
65                                                873.1315415414184                                 1080.0338529583678                                1327.772869038803                                 1330.9804734905115                                1328.7673457124138                                1327.185510565606                                 1325.221240252572
70                                                943.4095643070722                                 1130.7363838186116                                1356.3529043070066                                1358.7007893590899                                1356.0826149479271                                1354.3834231252968                                1352.3143200990703
75                                                1012.6044824302177                                1177.9597151190583                                1380.277976126673                                 1381.5463985620013                                1378.5070377274133                                1376.6995168401845                                1374.5388353498452
76.37995550352937                                 1031.7016640462775                                1190.9929343036665                                1386.8810830326497                                1387.8515833922092                                1384.6959788530176                                1382.8585601080117                                1380.6726037765611
