% Model:              batchmodel_BILLETTA_r_0.0445341_COIL_kr_1.6756_COIL_kw_3.2356_FUNZ_freq_6066_FUNZ_I_eff_61.5962.mph
% Version:            COMSOL 5.6.0.401
% Date:               Jan 27 2022, 14:02
% Table:              Tabella delle sonde 1 - 
% Tempo (s)                                       Temperatura (degC), Punto: (0, 0.5)               Temperatura (degC), Punto: (0.5*BILLETTA_r, 0.5)  Temperatura (degC), Punto: (BILLETTA_r-10*FUNZ_depth_billetta, 0.5)Temperatura (degC), Punto: (BILLETTA_r-5*FUNZ_depth_billetta, 0.5)Temperatura (degC), Punto: (BILLETTA_r-2*FUNZ_depth_billetta, 0.5)Temperatura (degC), Punto: (BILLETTA_r-FUNZ_depth_billetta, 0.5)Temperatura (degC), Punto: (BILLETTA_r-0.01[mm], 0.5)
0                                                 20                                                20.000000000000057                                20.0000000000216                                  20.000100424129982                                20.140705832174945                                20.332431641323012                                20.530714855244128
5                                                 20.66772167232358                                 34.51926147330971                                 330.24012923293253                                388.8737541612105                                 423.6439113825844                                 431.1341781796084                                 434.0248626735088
10                                                32.16546864629589                                 91.91740676642075                                 588.1046113701029                                 671.6103183823974                                 717.5511132489871                                 726.7666434311456                                 730.0851834987683
15                                                67.50134621456192                                 173.26293186869748                                810.6158208448434                                 935.494577663493                                  991.5608254215377                                 1001.0022396232226                                1003.7288508166099
20                                                120.38441072299213                                256.140835921698                                  962.058255945021                                  1051.782160227936                                 1079.5914401902032                                1082.9392908000768                                1083.1818385515244
25                                                181.04011185842592                                334.59218769657286                                1018.9870886635816                                1073.7102075796406                                1088.2821121691277                                1089.7408632914644                                1089.3436271064816
30                                                243.80003961316334                                404.6277678760414                                 1049.9915649568902                                1088.487941323785                                 1097.9122823289736                                1098.5011648044551                                1097.7777385077402
35                                                304.9221728685144                                 465.8642672241224                                 1066.6815846487216                                1096.1376474793283                                1102.9641748218464                                1103.1756257565976                                1102.3164257995627
40                                                361.81617675090445                                519.1403943087238                                 1078.8458172711967                                1102.5246542363434                                1107.6291642715728                                1107.5820235356382                                1106.6267816466952
45                                                413.31971539992765                                565.4763290265458                                 1090.792436098322                                 1109.4382829753617                                1112.9530882545882                                1112.6516646804394                                1111.5985209991536
50                                                460.06633162306196                                606.1817636396044                                 1100.5872109093443                                1115.5035623357912                                1117.8517885137649                                1117.363795867579                                 1116.2369375837898
55                                                502.10485191644966                                641.3252256492425                                 1108.4118305004904                                1120.8276855917607                                1122.4013483835788                                1121.7885213795967                                1120.6098066969685
60                                                540.3301911349515                                 672.8433813479351                                 1115.5695648195397                                1125.9078748202264                                1126.839204358671                                 1126.1222964491199                                1124.8990386698438
65                                                574.6257953485958                                 700.4741856005274                                 1121.9076075711546                                1130.7078505835511                                1131.163005803599                                 1130.3675176141687                                1129.1085909561948
70                                                605.4537653597463                                 725.2296313301093                                 1128.029257056919                                 1135.4788213116385                                1135.5079257012017                                1134.6405072947955                                1133.347970608616
75                                                633.1554073972089                                 748.8523118559101                                 1134.0576769643649                                1140.3566963199855                                1140.0165274726883                                1139.0850487211492                                1137.7611184278717
80                                                658.2021965876103                                 773.2948744547456                                 1140.3102785945093                                1145.5518889798095                                1144.8662307118302                                1143.873329826918                                 1142.5180687743054
85                                                680.374750981534                                  797.6487334093264                                 1146.6393673903094                                1150.966491908613                                 1149.9744803607937                                1148.9252298964475                                1147.539703010828
90                                                699.698496378089                                  821.9138418705146                                 1153.048438605485                                 1156.6027090156886                                1155.3432107173312                                1154.2426519143023                                1152.8279089986104
95                                                717.297828032557                                  846.0881280470454                                 1159.6920614900419                                1162.558002927116                                 1161.0579614809817                                1159.9097508290029                                1158.4661728901915
100                                               732.5340027559305                                 870.1727688760792                                 1166.4824287936322                                1168.7770073575075                                1167.0701395078186                                1165.8787201419568                                1164.4070681146568
105                                               745.4070205482088                                 894.1677643576166                                 1173.419540516255                                 1175.2597223068642                                1173.3797447978418                                1172.1495598531637                                1170.6505946720058
110                                               759.0606193001969                                 917.5282775967008                                 1180.668065228455                                 1182.1119833865937                                1180.0743684987306                                1178.8068957252376                                1177.2801067460819
115                                               776.0875067140208                                 939.8049699833663                                 1188.3638086131418                                1189.4210754831543                                1187.2262488985066                                1185.9205204298778                                1184.3643483104465
120                                               793.9731580499591                                 961.4336303457725                                 1196.3750602005266                                1197.1023457811812                                1194.7653260508687                                1193.4227458896744                                1191.8366483623918
125                                               812.7175733080124                                 982.4142586839206                                 1204.7018199906101                                1205.1557942806735                                1202.6915999558164                                1201.3135721046278                                1199.697006901918
130                                               840.4264185146143                                 1001.9869831558057                                1213.8558731037033                                1214.0345480961723                                1211.4412874834243                                1210.0274317397839                                1208.3803139610318
135                                               868.6676322196284                                 1021.4930933743814                                1223.0512313350982                                1222.9526056657733                                1220.2296629845032                                1218.7799090603949                                1217.1022513549565
140                                               896.9088459246424                                 1040.9992035929577                                1232.2465895664936                                1231.8706632353746                                1229.0180384855826                                1227.5323863810058                                1225.8241887488812
145                                               924.3282046046021                                 1059.8619683942875                                1241.6087514569736                                1240.9633862269575                                1237.9822313660702                                1236.4603464329766                                1234.720885965939
150                                               950.5031829151638                                 1077.7506363250532                                1251.2234727315072                                1250.3205721903541                                1247.2126314106763                                1245.6540069545144                                1243.8821890887048
155                                               976.6781612257258                                 1095.6393042558188                                1260.8381940060408                                1259.6777581537508                                1256.4430314552828                                1254.8476674760523                                1253.043492211471
160                                               1002.8531395362876                                1113.527972186584                                 1270.4529152805749                                1269.034944117147                                 1265.6734314998894                                1264.0413279975896                                1262.2047953342371
165                                               1025.6599746608713                                1130.0612213037784                                1279.9585727261938                                1278.29500777251                                  1274.8095097386022                                1273.1407103328238                                1271.2713700799204
170                                               1047.8927731713084                                1146.3634647945696                                1289.4456422948679                                1287.5385187584097                                1283.9295126007341                                1282.2240247256145                                1280.3218001566147
175                                               1070.1255716817454                                1162.6657082853608                                1298.9327118635415                                1296.78202974431                                  1293.049515462866                                 1291.3073391184048                                1289.372230233309
180                                               1091.8641032789865                                1178.7340125804371                                1308.3725618425901                                1305.9805741889595                                1302.1251734896691                                1300.3463635261778                                1298.378341838376
185                                               1111.967163833831                                 1194.0282396106613                                1317.656167757139                                 1315.0303296410066                                1311.05409967559                                  1309.2388375862943                                1307.2378088369442
190                                               1131.2456080391003                                1208.9321712752799                                1326.8609942822823                                1324.0050646049153                                1319.9090426041757                                1318.0574198992745                                1316.0233365623853
195                                               1149.699435894795                                 1223.4458075742923                                1335.98704141802                                  1332.9047790806858                                1328.6900022754262                                1326.8021104651184                                1324.7349250146995
200                                               1167.3286474009142                                1237.5691485076977                                1345.0343091643522                                1341.7294730683175                                1337.3969786893408                                1335.472909283826                                 1333.372574193886
205                                               1184.2088743554427                                1251.2356948822353                                1353.7654618527354                                1350.2456033111603                                1345.7994441314627                                1343.8403243873586                                1341.7077759779054
210                                               1200.4920563475025                                1264.3118539449843                                1361.7037068519808                                1357.9839958981934                                1353.4342827279206                                1351.4433206521257                                1349.2814717287324
215                                               1216.042196019333                                 1276.917201255666                                 1369.2758094206756                                1365.3645967605435                                1360.7160180110423                                1358.694559182486                                 1356.5045534475175
220                                               1230.8592933709338                                1289.051736814281                                 1376.4817695588204                                1372.3874058982105                                1367.644649980829                                 1365.5940399784404                                1363.3770211342617
225                                               1244.9433484023052                                1300.7154606208296                                1383.3215872664146                                1379.052423311195                                 1374.2201786372798                                1372.1417630399878                                1369.8988747889643
228.44491406260516                                1254.2205068588314                                1308.4776287134687                                1387.8210677724142                                1383.4363281938226                                1378.545155210301                                 1376.4483649477593                                1374.1883185719075
