% Model:              batchmodel_BILLETTA_r_0.0445341_COIL_kr_2.7711_COIL_kw_3.7744_FUNZ_freq_6066_FUNZ_I_eff_61.5962.mph
% Version:            COMSOL 5.6.0.401
% Date:               Jan 27 2022, 19:20
% Table:              Tabella delle sonde 1 - 
% Tempo (s)                                       Temperatura (degC), Punto: (0, 0.5)               Temperatura (degC), Punto: (0.5*BILLETTA_r, 0.5)  Temperatura (degC), Punto: (BILLETTA_r-10*FUNZ_depth_billetta, 0.5)Temperatura (degC), Punto: (BILLETTA_r-5*FUNZ_depth_billetta, 0.5)Temperatura (degC), Punto: (BILLETTA_r-2*FUNZ_depth_billetta, 0.5)Temperatura (degC), Punto: (BILLETTA_r-FUNZ_depth_billetta, 0.5)Temperatura (degC), Punto: (BILLETTA_r-0.01[mm], 0.5)
0                                                 20                                                20.000000000000057                                20.000000000022                                   20.00010277402515                                 20.140954139015662                                20.33326392896305                                 20.532951507250687
5                                                 20.660432963256596                                33.585860537476776                                313.53283887086434                                369.72621524051624                                403.94587550538176                                411.5198232010947                                 414.4647203314114
10                                                32.55997402186307                                 90.14880334393075                                 564.888920466654                                  646.5064517496457                                 690.7251657078459                                 699.6384888320268                                 702.8427673630661
15                                                64.7475075048979                                  168.42167785221744                                782.1611613887688                                 902.1097781778375                                 959.9923303622815                                 970.0918294056906                                 973.1709553820648
20                                                113.85164903200848                                249.8028515616553                                 951.9984615434313                                 1047.9886855702202                                1079.3294990104819                                1083.2696741075192                                1083.718263470692
25                                                173.79872112099991                                327.82936383355843                                1020.9241258016071                                1077.9003240604115                                1092.4763838958233                                1093.8109187691157                                1093.3467494590514
30                                                237.38806187698515                                398.6298750600621                                 1047.5729596201609                                1086.97141181007                                  1096.7776288161049                                1097.4378177620906                                1096.7425735978568
35                                                299.5390072096727                                 460.68951840574175                                1062.806719252338                                 1093.8140347153994                                1101.2066114785548                                1101.5066572689616                                1100.6812213947383
40                                                356.8970017958718                                 514.696223454077                                  1077.1176968529671                                1101.5927468120453                                1106.914887377322                                 1106.892272743552                                 1105.945385719302
45                                                409.0709233241955                                 561.4091018283052                                 1089.693896830101                                 1108.9252692352097                                1112.5865566483171                                1112.3042019844097                                1111.2577719765231
50                                                456.10150499847316                                602.0123591700337                                 1099.2199302104605                                1114.8039278109072                                1117.345282228233                                 1116.8872268535165                                1115.771600138119
55                                                498.5088812229433                                 637.5267114502179                                 1106.9298949938566                                1119.8702877198848                                1121.6109299588588                                1121.025934856366                                 1119.8585487113378
60                                                536.6287714746608                                 668.7172482072424                                 1113.341063093551                                 1124.3704018092085                                1125.5357216358962                                1124.8578257482582                                1123.650751730093
65                                                571.7044655482053                                 697.7836013951013                                 1120.178825911271                                 1129.3661903423917                                1129.9591547609134                                1129.1872109472251                                1127.9389028037413
70                                                603.3760088090438                                 724.0640294528538                                 1126.9361743708741                                1134.5561312348727                                1134.6490180844403                                1133.7928261163684                                1132.5059259686627
75                                                631.6447101335056                                 747.5677069620458                                 1133.6126891547638                                1139.9395818578118                                1139.6046462309655                                1138.6740059399285                                1137.351157552665
80                                                657.0946275976569                                 772.3885947684315                                 1140.0212587508458                                1145.22978283238                                  1144.5291296047567                                1143.5338674863729                                1142.1784480306924
85                                                679.4215415491569                                 796.3942622178864                                 1146.2593443560304                                1150.5760991654283                                1149.5771201791222                                1148.5270488403671                                1147.1420534763192
90                                                698.6999021236783                                 819.7490453174458                                 1152.3834402612106                                1156.0115252473252                                1154.7745486843328                                1153.6783725935375                                1152.2663574215385
95                                                715.4579722979372                                 843.6189947058843                                 1158.7944032547007                                1161.770173678589                                 1160.3054073272197                                1159.1639681246124                                1157.7243738854268
100                                               729.4189850572715                                 867.3931942893931                                 1165.2822168456642                                1167.7293884178225                                1166.0732990933216                                1164.8915579042286                                1163.4254575347604
105                                               741.6528654851735                                 890.8467314284491                                 1171.9499719692121                                1173.9597788006708                                1172.1383220035027                                1170.9195136408393                                1169.4272381213564
110                                               755.0365351366139                                 913.3748385270636                                 1179.0748698405714                                1180.6512062696106                                1178.662073625951                                 1177.4047910211893                                1175.8846762847702
115                                               767.8761339286331                                 935.333587751522                                  1186.4937012569708                                1187.691885114618                                 1185.5494093190669                                1184.2549784283856                                1182.7065350424296
120                                               785.5182793154696                                 956.3667082784572                                 1194.514483111619                                 1195.385994668552                                 1193.1025416385592                                1191.771688331627                                 1190.193829958604
125                                               809.5323894880108                                 976.8088436705642                                 1202.9917209757086                                1203.547077879287                                 1201.1241865463794                                1199.7565431811581                                1198.148407285802
130                                               833.5464996605518                                 997.250979062671                                  1211.4689588397982                                1211.7081610900223                                1209.1458314541992                                1207.7413980306887                                1206.102984613
135                                               860.1282594154474                                 1017.0193221046981                                1220.4274000773194                                1220.3769602248049                                1217.681678059072                                 1216.240906829718                                 1214.571793875598
140                                               888.4239701406699                                 1036.3378969773626                                1229.707052976465                                 1229.3846686121005                                1226.5607632832894                                1225.083956134502                                 1223.3838619421654
145                                               916.7196808658924                                 1055.6564718500272                                1238.9867058756113                                1238.3923769993962                                1235.4398485075067                                1233.927005439286                                 1232.1959300087328
150                                               942.3157108466784                                 1073.3356664569214                                1248.4258355737988                                1247.5773903517743                                1244.4999199794383                                1242.9509082385507                                1241.1880006214342
155                                               967.0064789787381                                 1090.4651410966626                                1257.9184413217854                                1256.821857926957                                 1253.6206800885507                                1252.035455159939                                 1250.2404300147145
160                                               991.6972471107975                                 1107.5946157364037                                1267.4110470697715                                1266.066325502139                                 1262.7414401976625                                1261.1200020813276                                1259.292859407995
165                                               1016.388015242857                                 1124.7240903761449                                1276.903652817758                                 1275.3107930773217                                1271.8622003067749                                1270.2045490027162                                1268.3452888012753
170                                               1041.0787833749164                                1141.8535650158856                                1286.3962585657441                                1284.5552606525034                                1280.9829604158867                                1279.2890959241045                                1277.3977181945556
175                                               1062.0608762597362                                1157.3509362019586                                1295.6361480989813                                1293.5624108909851                                1289.8705848193554                                1288.1408865325911                                1286.2172099966028
180                                               1081.7993694272327                                1172.3010274947237                                1304.7912963722606                                1302.4899834492544                                1298.68003373473                                  1296.914628871647                                 1294.9585927426392
185                                               1101.5378625947296                                1187.2511187874888                                1313.94644464554                                  1311.4175560075237                                1307.489482650104                                 1305.6883712107024                                1303.699975488676
190                                               1121.276355762226                                 1202.2012100802535                                1323.1015929188193                                1320.345128565793                                 1316.2989315654786                                1314.4621135497582                                1312.4413582347129
195                                               1141.014848929723                                 1217.1513013730182                                1332.2567411920986                                1329.2727011240622                                1325.1083804808532                                1323.2358558888136                                1321.1827409807497
200                                               1158.1957780680837                                1230.6356955300807                                1340.6516207749783                                1337.4579411468371                                1333.1844767305543                                1331.2786230198249                                1329.1950522439206
205                                               1174.519100192717                                 1243.6286094625002                                1348.7915656802597                                1345.3942608760422                                1341.014663832938                                 1339.0762782169268                                1336.9628899337663
210                                               1190.8424223173502                                1256.6215233949197                                1356.9315105855408                                1353.3305806052472                                1348.8448509353211                                1346.8739334140291                                1344.7307276236115
215                                               1207.1657444419834                                1269.6144373273396                                1365.0714554908218                                1361.2669003344522                                1356.6750380377039                                1354.671588611131                                 1352.4985653134572
220                                               1223.4890665666167                                1282.6073512597595                                1373.2114003961037                                1369.2032200636572                                1364.5052251400875                                1362.469243808233                                 1360.266403003302
221.25558427815668                                1227.588127892012                                 1285.870090951957                                 1375.2554777657297                                1371.19616371934                                  1366.471517104243                                 1364.4273664626262                                1362.217037979031
