% Model:              batchmodel_BILLETTA_r_0.0542379_COIL_kr_1.6756_COIL_kw_3.2356_FUNZ_freq_8940.8_FUNZ_I_eff_174.7421.mph
% Version:            COMSOL 5.6.0.401
% Date:               Jan 27 2022, 22:46
% Table:              Tabella delle sonde 1 - 
% Tempo (s)                                       Temperatura (degC), Punto: (0, 0.5)               Temperatura (degC), Punto: (0.5*BILLETTA_r, 0.5)  Temperatura (degC), Punto: (BILLETTA_r-10*FUNZ_depth_billetta, 0.5)Temperatura (degC), Punto: (BILLETTA_r-5*FUNZ_depth_billetta, 0.5)Temperatura (degC), Punto: (BILLETTA_r-2*FUNZ_depth_billetta, 0.5)Temperatura (degC), Punto: (BILLETTA_r-FUNZ_depth_billetta, 0.5)Temperatura (degC), Punto: (BILLETTA_r-0.01[mm], 0.5)
0                                                 20.000000000000057                                20                                                20.000000186805494                                20.135492259560408                                21.269831280131257                                21.95786271548701                                 22.525431899556338
2.5321748962058854                                20.00045324905858                                 21.3612447929998                                  1240.3709372322091                                1365.9568834686056                                1394.412045506841                                 1397.1334393806715                                1396.7327494605452
