% Model:              batchmodel_BILLETTA_r_0.0335556_COIL_kr_1.4848_COIL_kw_4.5299_FUNZ_freq_2540.9_FUNZ_I_eff_162.3068.mph
% Version:            COMSOL 5.6.0.280
% Date:               Jan 27 2022, 16:32
% Table:              Tabella delle sonde 1 - 
% Tempo (s)                                       Temperatura (degC), Punto: (0, 0.5)               Temperatura (degC), Punto: (0.5*BILLETTA_r, 0.5)  Temperatura (degC), Punto: (BILLETTA_r-10*FUNZ_depth_billetta, 0.5)Temperatura (degC), Punto: (BILLETTA_r-5*FUNZ_depth_billetta, 0.5)Temperatura (degC), Punto: (BILLETTA_r-2*FUNZ_depth_billetta, 0.5)Temperatura (degC), Punto: (BILLETTA_r-FUNZ_depth_billetta, 0.5)Temperatura (degC), Punto: (BILLETTA_r-0.01[mm], 0.5)
0                                                 20                                                20.000000000000057                                20.00000000593417                                 20.027342811735537                                20.315640215476265                                20.498487075619607                                20.68305110494839
5                                                 34.11711799755278                                 127.80135406070843                                832.6393641993374                                 1112.4944902441416                                1191.2610302872931                                1200.6197302301298                                1201.874972202278
10                                                137.88451572560456                                340.25854365008354                                1251.0855128696921                                1333.214552051877                                 1349.3755892409454                                1349.5626086991624                                1347.2613759702076
15                                                286.4125786322352                                 527.8557476051978                                 1341.262046200036                                 1377.7267080987976                                1382.003748276395                                 1380.467119896497                                 1377.481820661746
18.4997969512226                                  386.0860032652595                                 639.2367899623923                                 1369.230024119412                                 1393.0863446751273                                1394.2475610757278                                1392.2610089505406                                1389.083351186242
