% Model:              batchmodel_BILLETTA_r_0.0335556_COIL_kr_1.9397_COIL_kw_5.8583_FUNZ_freq_4639.7_FUNZ_I_eff_127.5152.mph
% Version:            COMSOL 5.6.0.280
% Date:               Jan 27 2022, 19:02
% Table:              Tabella delle sonde 1 - 
% Tempo (s)                                       Temperatura (degC), Punto: (0, 0.5)               Temperatura (degC), Punto: (0.5*BILLETTA_r, 0.5)  Temperatura (degC), Punto: (BILLETTA_r-10*FUNZ_depth_billetta, 0.5)Temperatura (degC), Punto: (BILLETTA_r-5*FUNZ_depth_billetta, 0.5)Temperatura (degC), Punto: (BILLETTA_r-2*FUNZ_depth_billetta, 0.5)Temperatura (degC), Punto: (BILLETTA_r-FUNZ_depth_billetta, 0.5)Temperatura (degC), Punto: (BILLETTA_r-0.01[mm], 0.5)
0                                                 20                                                19.999999999999886                                20.000000001878277                                20.015022138518077                                20.3974663664726                                  20.67627240124392                                 20.940125538559187
5                                                 32.01108785016197                                 118.45906464277238                                923.7585831906359                                 1131.882999010596                                 1185.9493203203883                                1192.2453959827144                                1193.0040249215308
10                                                133.78911881872085                                312.7444057715513                                 1194.3278634344724                                1255.0284609051773                                1267.810929110885                                 1268.2787063223354                                1266.9298724743962
15                                                268.013772500601                                  472.2900163561412                                 1251.4466700974986                                1281.0569410306166                                1285.779063835184                                 1285.1004575899678                                1283.3320961999634
20                                                392.0817487487534                                 602.5241198907573                                 1289.5280922193137                                1307.5975440498623                                1309.2835155915254                                1308.1400764934515                                1306.1587863282539
25                                                498.83004030671657                                710.2235175951337                                 1327.3805424439515                                1341.4637686429887                                1342.0260581364755                                1340.6564464216467                                1338.512159489408
30                                                589.5046684299139                                 818.7513320703116                                 1369.5030373670634                                1381.0346050512294                                1380.7513991324386                                1379.178760334807                                 1376.8590320227786
31.201008783192062                                608.9692295633205                                 848.7093648643455                                 1379.0873274962628                                1389.8227289225101                                1389.293290469719                                 1387.6694694736389                                1385.3087940884957
