% Model:              batchmodel_BILLETTA_r_0.0131664_COIL_kr_2.4069_COIL_kw_3.2356_FUNZ_freq_2540.9_FUNZ_I_eff_85.0125.mph
% Version:            COMSOL 5.6.0.401
% Date:               Jan 27 2022, 13:08
% Table:              Tabella delle sonde 1 - 
% Tempo (s)                                       Temperatura (degC), Punto: (0, 0.5)               Temperatura (degC), Punto: (0.5*BILLETTA_r, 0.5)  Temperatura (degC), Punto: (BILLETTA_r-10*FUNZ_depth_billetta, 0.5)Temperatura (degC), Punto: (BILLETTA_r-5*FUNZ_depth_billetta, 0.5)Temperatura (degC), Punto: (BILLETTA_r-2*FUNZ_depth_billetta, 0.5)Temperatura (degC), Punto: (BILLETTA_r-FUNZ_depth_billetta, 0.5)Temperatura (degC), Punto: (BILLETTA_r-0.01[mm], 0.5)
0                                                 20                                                19.999999999999943                                20.000000000027                                   20.000103581784174                                20.049606311661876                                20.146687325565267                                20.21173427871952
5                                                 243.54618678335066                                314.6083595262371                                 393.9841702971826                                 474.2917992774942                                 518.9574941531627                                 528.0337573878144                                 531.3667960094289
10                                                538.8285015314244                                 628.5134887762254                                 740.2493994183794                                 866.2468684459315                                 929.491663822054                                  940.1042243618559                                 942.9935716797803
15                                                736.4039430400887                                 890.4854183767906                                 1035.640068604253                                 1100.3554183110623                                1113.7559791676608                                1114.2223703822224                                1112.8395392424281
20                                                1016.758476407601                                 1092.584305525325                                 1123.1840888783413                                1132.085112359483                                 1131.103321330455                                 1129.601692234064                                 1127.5312751097326
25                                                1137.6467927880462                                1154.524541016105                                 1161.5994439234832                                1161.2277105415565                                1157.5311495186202                                1155.566250806754                                 1153.2522358106417
30                                                1176.5505210175988                                1182.088423777625                                 1182.8926639436604                                1179.430075359981                                 1174.6467972861883                                1172.4669254874848                                1170.0203739613507
35                                                1196.4960868070407                                1199.5488187023097                                1198.4769863093893                                1193.8646629460927                                1188.5880550191432                                1186.2891972497696                                1183.7522982166488
40                                                1209.4579498748772                                1211.6991465342358                                1210.0040719847334                                1204.9394714542282                                1199.4194080626871                                1197.0485905047904                                1194.4475677959745
45                                                1219.6626176862592                                1221.3441820683602                                1219.2039508303646                                1213.8117557620567                                1208.1120592298566                                1205.6868712311239                                1203.0364755199985
50                                                1227.9940887521675                                1229.3012266976266                                1226.8479675056992                                1221.2168711372938                                1215.3819115652918                                1212.9149913972528                                1210.2262734714022
55                                                1236.123122158404                                 1237.0687313709918                                1234.3125570305906                                1228.4499501668865                                1222.4836422152516                                1219.976126404947                                 1217.2500812748322
60                                                1242.751270789221                                 1243.4309756071061                                1240.446863055689                                 1234.4075415603584                                1228.3389087509859                                1225.7992235770753                                1223.0432283090795
65                                                1249.3794194200382                                1249.79321984322                                  1246.5811690807873                                1240.3651329538297                                1234.1941752867197                                1231.622320749204                                 1228.8363753433273
70                                                1254.3783859787673                                1254.6020593776848                                1251.2257122407736                                1244.8808158207175                                1238.63385836602                                  1236.0377117224034                                1233.2288779818214
75                                                1259.0176786803809                                1259.0679543939914                                1255.5413610647229                                1249.0781691342358                                1242.7610236668793                                1240.1423239760657                                1237.312160932167
80                                                1263.6569713819936                                1263.5338494102975                                1259.857009888672                                 1253.275522447755                                 1246.8881889677382                                1244.2469362297284                                1241.3954438825126
85                                                1268.2962640836072                                1267.9997444266041                                1264.1726587126213                                1257.4728757612734                                1251.015354268597                                 1248.351548483391                                 1245.4787268328582
90                                                1272.5860170138176                                1272.1314036371                                   1268.167016584644                                 1261.3586964817932                                1254.836421079844                                 1252.151711395924                                 1249.259056864968
95                                                1275.6348210684619                                1275.0764466701867                                1271.0207155727749                                1264.1385028010523                                1257.5707658423466                                1254.8710071269456                                1251.9638323708336
100                                               1278.6836251231057                                1278.0214897032738                                1273.8744145609057                                1266.9183091203117                                1260.3051106048492                                1257.590302857967                                 1254.6686078766993
105                                               1281.7324291777495                                1280.96653273636                                  1276.728113549037                                 1269.6981154395712                                1263.0394553673514                                1260.3095985889886                                1257.3733833825645
110                                               1284.7812332323933                                1283.9115757694467                                1279.581812537168                                 1272.4779217588302                                1265.773800129854                                 1263.0288943200103                                1260.0781588884302
115                                               1287.1298385023533                                1286.1828839446835                                1281.7845191787742                                1274.6244693922795                                1267.8853531633863                                1265.1287557664086                                1262.1666746577494
120                                               1289.049985420157                                 1288.0419272984172                                1283.588877359688                                 1276.3835199621158                                1269.6158139645872                                1266.8495794328746                                1263.878095183551
125                                               1290.9701323379613                                1289.9009706521515                                1285.3932355406018                                1278.142570531952                                 1271.3462747657882                                1268.570403099341                                 1265.5895157093532
130                                               1292.890279255765                                 1291.7600140058848                                1287.1975937215152                                1279.9016211017884                                1273.076735566989                                 1270.291226765807                                 1267.3009362351545
135                                               1294.8104261735693                                1293.619057359619                                 1289.001951902429                                 1281.6606716716246                                1274.8071963681905                                1272.0120504322726                                1269.0123567609567
140                                               1296.2700750723488                                1295.032454891153                                 1290.373849365089                                 1282.998066991795                                 1276.1227673953645                                1273.3202576407634                                1270.3133766196506
145                                               1297.4479408165184                                1296.1731574697656                                1291.4811199663936                                1284.0774474204773                                1277.1844633904843                                1274.375980881096                                 1271.3632683738701
150                                               1298.625806560688                                 1297.3138600483776                                1292.5883905676988                                1285.1568278491595                                1278.2461593856046                                1275.431704121428                                 1272.41316012809
155                                               1299.8036723048576                                1298.45456262699                                  1293.6956611690039                                1286.2362082778418                                1279.307855380725                                 1276.487427361761                                 1273.4630518823096
160                                               1300.9815380490272                                1299.5952652056026                                1294.8029317703094                                1287.3155887065245                                1280.3695513758448                                1277.5431506020936                                1274.5129436365296
165                                               1301.870284445376                                 1300.4555082167708                                1295.6375654692233                                1288.1289551003033                                1281.1695081909997                                1278.338598364313                                 1275.3040016724585
170                                               1302.5821159397665                                1301.1441353286514                                1296.305370032626                                 1288.7795449547084                                1281.8093042915189                                1278.9747810650988                                1275.9366768736168
175                                               1303.293947434157                                 1301.8327624405329                                1296.973174596029                                 1289.4301348091135                                1282.4491003920375                                1279.6109637658847                                1276.5693520747755
180                                               1304.005778928547                                 1302.5213895524134                                1297.6409791594315                                1290.0807246635186                                1283.0888964925566                                1280.24714646667                                  1277.2020272759341
185                                               1304.7176104229375                                1303.2100166642945                                1298.3087837228336                                1290.7313145179232                                1283.7286925930748                                1280.8833291674555                                1277.8347024770924
190                                               1305.2517882068273                                1303.7265102578558                                1298.809449903727                                 1291.218960721881                                 1284.20822255569                                  1281.3601530663836                                1278.308906106703
195                                               1305.6772579813342                                1304.1376737005753                                1299.2078425052896                                1291.6069001432907                                1284.589684131363                                 1281.7394637859989                                1278.6861394617372
200                                               1306.1027277558414                                1304.5488371432953                                1299.6062351068526                                1291.9948395646998                                1284.9711457070357                                1282.118774505614                                 1279.0633728167713
205                                               1306.5281975303483                                1304.9600005860148                                1300.0046277084152                                1292.3827789861089                                1285.352607282709                                 1282.4980852252293                                1279.4406061718055
210                                               1306.9536673048551                                1305.3711640287343                                1300.4030203099783                                1292.7707184075184                                1285.7340688583818                                1282.877395944845                                 1279.8178395268396
215                                               1307.2715692989764                                1305.6783504425166                                1300.7006576522003                                1293.060548194428                                 1286.019064830199                                 1283.1607873510911                                1280.0996811588598
220                                               1307.5236495365662                                1305.9219123150187                                1300.936641884859                                 1293.2903437549903                                1286.2450325737886                                1283.3854848094975                                1280.3231516806368
225                                               1307.7757297741564                                1306.1654741875209                                1301.1726261175177                                1293.5201393155526                                1286.4710003173777                                1283.6101822679043                                1280.5466222024143
230                                               1308.0278100117457                                1306.409036060023                                 1301.4086103501763                                1293.7499348761144                                1286.6969680609673                                1283.8348797263106                                1280.7700927241917
235                                               1308.279890249336                                 1306.6525979325256                                1301.644594582835                                 1293.9797304366766                                1286.9229358045563                                1284.0595771847175                                1280.9935632459692
240                                               1308.4676525368923                                1306.834072681167                                 1301.8204745094185                                1294.1510287498018                                1287.0913899943225                                1284.2270848187713                                1281.1601548712279
245                                               1308.6160580539313                                1306.9775557232224                                1301.959576034636                                 1294.2865320361566                                1287.2246510888763                                1284.3595974507793                                1281.2919417541634
250                                               1308.7644635709703                                1307.1210387652777                                1302.098677559854                                 1294.4220353225119                                1287.35791218343                                  1284.4921100827878                                1281.4237286370999
