% Model:              batchmodel_BILLETTA_r_0.0445341_COIL_kr_1.4848_COIL_kw_5.8583_FUNZ_freq_2540.9_FUNZ_I_eff_162.3068.mph
% Version:            COMSOL 5.6.0.401
% Date:               Jan 27 2022, 13:36
% Table:              Tabella delle sonde 1 - 
% Tempo (s)                                       Temperatura (degC), Punto: (0, 0.5)               Temperatura (degC), Punto: (0.5*BILLETTA_r, 0.5)  Temperatura (degC), Punto: (BILLETTA_r-10*FUNZ_depth_billetta, 0.5)Temperatura (degC), Punto: (BILLETTA_r-5*FUNZ_depth_billetta, 0.5)Temperatura (degC), Punto: (BILLETTA_r-2*FUNZ_depth_billetta, 0.5)Temperatura (degC), Punto: (BILLETTA_r-FUNZ_depth_billetta, 0.5)Temperatura (degC), Punto: (BILLETTA_r-0.01[mm], 0.5)
0                                                 20                                                20                                                20.000000005197762                                20.02683974092804                                 20.315644540300184                                20.500449442072238                                20.687559126696044
5                                                 20.99595479386676                                 55.36258324734871                                 807.288638898939                                  1097.5392575903188                                1183.4817022913853                                1194.0390113273756                                1195.7271675003344
10                                                46.647603640707814                                178.63428058261314                                1218.176253185843                                 1317.1319677602864                                1338.233383779539                                 1339.1775676563025                                1337.1703854745074
15                                                110.51126216161055                                307.9299166773234                                 1325.1820928455727                                1372.521020724344                                 1379.7530158619556                                1378.643399428312                                 1375.8079810503841
20                                                195.14219805503683                                426.1056803024161                                 1368.4393923216107                                1396.4168897289387                                1398.7113719998265                                1396.8776041234555                                1393.7331852064926
20.69108732386747                                 207.53791797549894                                441.3876977622266                                 1372.2974522922777                                1398.6584745153068                                1400.559956689659                                 1398.6682948415028                                1395.497830342846
