% Model:              batchmodel_BILLETTA_r_0.0445341_COIL_kr_2.4069_COIL_kw_5.3284_FUNZ_freq_8940.8_FUNZ_I_eff_127.5152.mph
% Version:            COMSOL 5.6.0.401
% Date:               Jan 27 2022, 18:29
% Table:              Tabella delle sonde 1 - 
% Tempo (s)                                       Temperatura (degC), Punto: (0, 0.5)               Temperatura (degC), Punto: (0.5*BILLETTA_r, 0.5)  Temperatura (degC), Punto: (BILLETTA_r-10*FUNZ_depth_billetta, 0.5)Temperatura (degC), Punto: (BILLETTA_r-5*FUNZ_depth_billetta, 0.5)Temperatura (degC), Punto: (BILLETTA_r-2*FUNZ_depth_billetta, 0.5)Temperatura (degC), Punto: (BILLETTA_r-FUNZ_depth_billetta, 0.5)Temperatura (degC), Punto: (BILLETTA_r-0.01[mm], 0.5)
0                                                 19.999999999999943                                20                                                20.000000011858845                                20.032603879137127                                20.774426829602362                                21.308355412893718                                21.756885035654022
5                                                 21.431608211146624                                62.372881564624834                                1176.9717996263657                                1262.573993621526                                 1283.057712229167                                 1284.9767078515933                                1284.5233210847555
10                                                50.77216688192874                                 185.64822451267452                                1283.3437074323865                                1314.915597523598                                 1321.320368905242                                 1321.2265633168408                                1320.0422421134167
15                                                117.90252675709104                                303.6369518992975                                 1333.1086817872701                                1354.1095739022458                                1357.72776553831                                  1357.1957020618288                                1355.797736392055
19.63101587321467                                 192.46021736331295                                398.70225879237876                                1379.3611647134612                                1395.7749691419108                                1398.011672074943                                 1397.2230039240867                                1395.659892609479
