% Model:              batchmodel_BILLETTA_r_0.0335556_COIL_kr_2.7711_COIL_kw_4.5299_FUNZ_freq_6066_FUNZ_I_eff_127.5152.mph
% Version:            COMSOL 5.6.0.280
% Date:               Jan 27 2022, 20:38
% Table:              Tabella delle sonde 1 - 
% Tempo (s)                                       Temperatura (degC), Punto: (0, 0.5)               Temperatura (degC), Punto: (0.5*BILLETTA_r, 0.5)  Temperatura (degC), Punto: (BILLETTA_r-10*FUNZ_depth_billetta, 0.5)Temperatura (degC), Punto: (BILLETTA_r-5*FUNZ_depth_billetta, 0.5)Temperatura (degC), Punto: (BILLETTA_r-2*FUNZ_depth_billetta, 0.5)Temperatura (degC), Punto: (BILLETTA_r-FUNZ_depth_billetta, 0.5)Temperatura (degC), Punto: (BILLETTA_r-0.01[mm], 0.5)
0                                                 20                                                19.999999999999886                                20.00000000322632                                 20.02048539560991                                 20.521606936413264                                20.885523321176265                                21.21434224933529
5                                                 34.84750844847184                                 130.86918422798277                                1059.6461044000212                                1193.844752107258                                 1226.9811357923186                                1230.533608464496                                 1230.4850694342435
10                                                142.64223310258393                                328.111957061785                                  1233.6618421824705                                1275.4326786095644                                1283.8445878171137                                1283.857914146733                                 1282.5252813582592
15                                                277.81115785839074                                485.9412830504974                                 1287.937171944318                                 1311.1057626599604                                1314.6307933540365                                1313.915282416881                                 1312.2746358258373
20                                                398.88076994874166                                611.6101463423363                                 1330.8598737332954                                1347.7236241044084                                1349.5369906009937                                1348.5200293472394                                1346.697954201883
25                                                504.2571686752857                                 721.0376078491204                                 1376.7542196127201                                1389.5705937824387                                1390.15622815679                                  1388.8919837904918                                1386.8894390961982
25.77492211376186                                 519.383753400951                                  737.1517408034523                                 1383.4653956785814                                1395.5724726527333                                1395.94240826138                                  1394.6379492875426                                1392.6078838001936
