% Model:              batchmodel_BILLETTA_r_0.0335556_COIL_kr_2.7711_COIL_kw_3.2356_FUNZ_freq_8940.8_FUNZ_I_eff_85.0125.mph
% Version:            COMSOL 5.6.0.280
% Date:               Jan 27 2022, 20:19
% Table:              Tabella delle sonde 1 - 
% Tempo (s)                                       Temperatura (degC), Punto: (0, 0.5)               Temperatura (degC), Punto: (0.5*BILLETTA_r, 0.5)  Temperatura (degC), Punto: (BILLETTA_r-10*FUNZ_depth_billetta, 0.5)Temperatura (degC), Punto: (BILLETTA_r-5*FUNZ_depth_billetta, 0.5)Temperatura (degC), Punto: (BILLETTA_r-2*FUNZ_depth_billetta, 0.5)Temperatura (degC), Punto: (BILLETTA_r-FUNZ_depth_billetta, 0.5)Temperatura (degC), Punto: (BILLETTA_r-0.01[mm], 0.5)
0                                                 20                                                20                                                20.000000000639375                                20.002371555656566                                20.389156904571394                                20.766174656505484                                21.101959588180307
5                                                 27.231591415611888                                96.76362815037493                                 834.1859542651235                                 1013.7052997799839                                1080.8944692794676                                1090.7764900877478                                1093.4223998474172
10                                                108.90466158349108                                275.7547839945187                                 1080.4891392311456                                1126.9329579098376                                1138.0611273780169                                1138.9095106760997                                1138.3632358151758
15                                                237.9101103199144                                 422.87237357610275                                1131.676825757968                                 1158.124702097185                                 1163.566767991063                                 1163.5717579138882                                1162.704232918024
20                                                356.8934179763917                                 535.1743493426184                                 1158.1332389698841                                1174.8283031470523                                1177.5923471442939                                1177.198837549122                                 1176.1745094394037
25                                                455.4801621675117                                 622.5987437123936                                 1180.664288237615                                 1192.5913924861643                                1194.0111236052785                                1193.401337829962                                 1192.2750601047946
30                                                538.3269732539088                                 695.6187249377365                                 1205.3452495174615                                1214.3995557382923                                1214.9634368366442                                1214.199958957588                                 1212.9858373291659
35                                                606.8614193237021                                 760.3712194333681                                 1232.5531770657353                                1240.1038970058034                                1240.163621152753                                 1239.2894449319574                                1237.994699857033
40                                                662.391665306553                                  823.7393054557825                                 1262.7322484673518                                1269.5664950592563                                1269.3141881643346                                1268.3487771741434                                1266.9719572064973
45                                                705.9147771163633                                 892.8490418785583                                 1297.2811256785144                                1303.4705866330296                                1302.8867690411112                                1301.8167890088403                                1300.3428826787003
50                                                740.5856579745107                                 961.3150448204968                                 1334.7826336798066                                1340.2267796737387                                1339.2506705000865                                1338.059376551873                                 1336.4746414418155
55                                                777.0582111078235                                 1027.4517979604057                                1370.8471818705716                                1375.2602488869456                                1373.8170398082234                                1372.495468547128                                 1370.7980755346139
59.15975751208601                                 820.2065423602038                                 1079.4010694253798                                1395.001252741315                                 1398.180840907387                                 1396.2894030120706                                1394.862914198588                                 1393.0839986800815
