% Model:              batchmodel_BILLETTA_r_0.0335556_COIL_kr_2.4069_COIL_kw_4.5299_FUNZ_freq_8940.8_FUNZ_I_eff_162.3068.mph
% Version:            COMSOL 5.6.0.280
% Date:               Jan 27 2022, 19:45
% Table:              Tabella delle sonde 1 - 
% Tempo (s)                                       Temperatura (degC), Punto: (0, 0.5)               Temperatura (degC), Punto: (0.5*BILLETTA_r, 0.5)  Temperatura (degC), Punto: (BILLETTA_r-10*FUNZ_depth_billetta, 0.5)Temperatura (degC), Punto: (BILLETTA_r-5*FUNZ_depth_billetta, 0.5)Temperatura (degC), Punto: (BILLETTA_r-2*FUNZ_depth_billetta, 0.5)Temperatura (degC), Punto: (BILLETTA_r-FUNZ_depth_billetta, 0.5)Temperatura (degC), Punto: (BILLETTA_r-0.01[mm], 0.5)
0                                                 20                                                20                                                20.000000105175673                                20.104437995966407                                21.133934873377143                                21.7780903345851                                  22.30943537016151
3.756334663940686                                 23.525010646042915                                103.1766960786623                                 1311.3738177238347                                1379.7234804590375                                1394.9788276019517                                1395.9875998174707                                1395.0203971147757
