% Model:              batchmodel_BILLETTA_r_0.0335556_COIL_kr_1.9397_COIL_kw_5.3284_FUNZ_freq_6066_FUNZ_I_eff_162.3068.mph
% Version:            COMSOL 5.6.0.280
% Date:               Jan 27 2022, 18:51
% Table:              Tabella delle sonde 1 - 
% Tempo (s)                                       Temperatura (degC), Punto: (0, 0.5)               Temperatura (degC), Punto: (0.5*BILLETTA_r, 0.5)  Temperatura (degC), Punto: (BILLETTA_r-10*FUNZ_depth_billetta, 0.5)Temperatura (degC), Punto: (BILLETTA_r-5*FUNZ_depth_billetta, 0.5)Temperatura (degC), Punto: (BILLETTA_r-2*FUNZ_depth_billetta, 0.5)Temperatura (degC), Punto: (BILLETTA_r-FUNZ_depth_billetta, 0.5)Temperatura (degC), Punto: (BILLETTA_r-0.01[mm], 0.5)
0                                                 20                                                19.999999999999886                                20.00000002504754                                 20.067347701610174                                20.763322519518056                                21.20561942493208                                 21.597037829381804
5                                                 33.592003958845225                                154.85751440718008                                1294.7200621290845                                1369.6987570734782                                1386.0747892252016                                1386.9853477284269                                1385.7031526917954
5.658186176393757                                 42.80225153890461                                 187.4397446396503                                 1322.4730539426187                                1383.3349952837675                                1395.9162628354075                                1396.288218751386                                 1394.8055590996523
