% Model:              batchmodel_BILLETTA_r_0.0542379_COIL_kr_1.6756_COIL_kw_3.2356_FUNZ_freq_4639.7_FUNZ_I_eff_61.5962.mph
% Version:            COMSOL 5.6.0.401
% Date:               Jan 27 2022, 22:28
% Table:              Tabella delle sonde 1 - 
% Tempo (s)                                       Temperatura (degC), Punto: (0, 0.5)               Temperatura (degC), Punto: (0.5*BILLETTA_r, 0.5)  Temperatura (degC), Punto: (BILLETTA_r-10*FUNZ_depth_billetta, 0.5)Temperatura (degC), Punto: (BILLETTA_r-5*FUNZ_depth_billetta, 0.5)Temperatura (degC), Punto: (BILLETTA_r-2*FUNZ_depth_billetta, 0.5)Temperatura (degC), Punto: (BILLETTA_r-FUNZ_depth_billetta, 0.5)Temperatura (degC), Punto: (BILLETTA_r-0.01[mm], 0.5)
0                                                 20                                                20                                                20.000000000012108                                20.000050195337735                                20.106280037413683                                20.253754089639813                                20.41428399782376
5                                                 20.092112360230487                                24.728288568153232                                258.9210129650279                                 308.5594152431174                                 339.1001687649581                                 345.92805742921394                                348.6250891133059
10                                                22.943185493062458                                52.7935808721565                                  460.83892707078485                                532.0601170364531                                 571.8022400137141                                 580.0242576824558                                 583.0780011285963
15                                                32.69848743548761                                 97.19724979668439                                 626.0485837594399                                 706.7225763195586                                 747.8597988575731                                 756.3537754714583                                 759.3637837059206
20                                                55.52184457965063                                 153.20891927493045                                795.9270947205124                                 917.6626873291726                                 973.8194075412285                                 983.3690020074567                                 986.0738295647542
25                                                87.79168336630636                                 210.6246390894944                                 926.5589364791427                                 1030.9821137886897                                1067.946068951871                                 1072.95385847822                                  1073.6994787132057
30                                                125.70947572810269                                266.74398107194145                                993.2927688848594                                 1066.2247756151692                                1085.9779818191464                                1087.9049324952025                                1087.5082602520033
35                                                167.40656752244143                                318.5495582071985                                 1022.8256071603197                                1076.9249129844675                                1091.0390490706664                                1092.232516246629                                 1091.590634884063
40                                                210.05952573150051                                366.0532974563463                                 1040.6122833947925                                1083.428427850146                                 1094.0763320053225                                1094.7583493113648                                1093.9384030434398
45                                                251.671202705807                                  409.769638345992                                  1054.7899756644665                                1089.3902608224698                                1097.5411709062228                                1097.8483085911535                                1096.893876709492
50                                                291.4701687598431                                 449.2079732225285                                 1065.9050791799996                                1094.7560518706496                                1101.1550970298113                                1101.1935623181307                                1100.1394272211337
55                                                329.6995073246087                                 486.11817499658673                                1075.6235741024288                                1099.7651722052233                                1104.719158716909                                 1104.534109303438                                 1103.3957360782492
60                                                366.1578932282416                                 520.1759776656748                                 1083.766327187113                                 1104.37187416109                                  1108.2269602039883                                1107.8693458461466                                1106.6641831787879
65                                                400.62145312306245                                551.532659238163                                  1090.8473763742081                                1108.6190870238497                                1111.589109918954                                 1111.091138338586                                 1109.8304565129151
70                                                432.81090419001316                                580.1902837526693                                 1097.2478973777038                                1112.5261598129937                                1114.7240956600717                                1114.103777003827                                 1112.794196100173
75                                                462.98609370869167                                606.3329203772333                                 1102.8397731249474                                1116.1401038465588                                1117.7252916934594                                1117.0068498965898                                1115.6568840582117
80                                                491.6811714767217                                 631.2618674559851                                 1108.4837443259512                                1119.8801695726956                                1120.8716512546698                                1120.0573690101778                                1118.667355140718
85                                                518.6577109623252                                 654.3962691084585                                 1113.795605233261                                 1123.5592176706677                                1124.0386589871923                                1123.1406128217886                                1121.7145378700434
90                                                543.9157121655023                                 675.7361253346535                                 1118.7753558468776                                1127.1772481404746                                1127.226314891027                                 1126.2565813314204                                1124.7984322461884
95                                                567.4551750862528                                 695.2814361345706                                 1123.4229961668002                                1130.7342609821162                                1130.4346189661742                                1129.405274539075                                 1127.9190382691531
100                                               589.4615503080968                                 713.7078147490832                                 1127.8788180076049                                1134.2463353421763                                1133.6418004827046                                1132.559372854018                                 1131.0472288196765
105                                               610.1202201758404                                 731.6906258192619                                 1132.2830615618523                                1137.72954445073                                  1136.8260967214856                                1135.6915667380804                                1134.153887496163
110                                               629.2292488097057                                 748.4941986796614                                 1136.482964026296                                 1141.1663798343598                                1140.0112136823473                                1138.831604307904                                 1137.27073062078
115                                               646.7886362096929                                 764.1185333302818                                 1140.4785254009366                                1144.5568414930658                                1143.1971513652902                                1141.9794855634882                                1140.3977581935283
120                                               662.8606654506169                                 778.9749644861357                                 1144.3405101450908                                1147.9382699445205                                1146.411166796961                                 1145.1609094626342                                1143.5600731622235
125                                               677.8041704585388                                 795.4333310023372                                 1148.4766163185877                                1151.5257965803053                                1149.810296955924                                 1148.5239364206368                                1146.9023021264175
130                                               691.3710438224202                                 811.8550626651537                                 1152.6049505363176                                1155.1706737800814                                1153.2859622588148                                1151.9661934909936                                1150.324446372008
135                                               703.5612855422617                                 828.2401594745858                                 1156.7255127982808                                1158.872901543849                                 1156.8381627056337                                1155.4876806737038                                1153.826505898996
140                                               714.3748956180625                                 844.5886214306328                                 1160.8383031044768                                1162.6324798716073                                1160.4668982963804                                1159.0883979687674                                1157.4084807073805
145                                               724.7907785136144                                 860.6373559045334                                 1165.1597120947122                                1166.5930392316554                                1164.2929258295908                                1162.885353134836                                 1161.1857620521846
150                                               734.3391532248086                                 876.5126223259705                                 1169.5858928505104                                1170.6856506650242                                1168.2582935314535                                1166.8223935805377                                1165.1029731099743
155                                               742.9322758381236                                 892.2380029521729                                 1174.0974492384494                                1174.897439882287                                 1172.352177389535                                 1170.889031337908                                 1169.1497708077777
160                                               750.5701463535593                                 907.8134977831397                                 1178.694381258531                                 1179.2284068834433                                1176.5745774038337                                1175.0852664069462                                1173.3261551455944
165                                               759.3984486465589                                 922.9097424446053                                 1183.4715710273813                                1183.7483795932458                                1180.9873212099292                                1179.4715424446272                                1177.6918955544934
170                                               769.6182146045145                                 937.4958783638987                                 1188.437908172782                                 1188.4639002799504                                1185.5962015186751                                1184.0535224950654                                1182.2525919094946
175                                               780.2571462156715                                 951.7211541465141                                 1193.5503976876826                                1193.343327025948                                 1190.3732016740146                                1188.8038170400882                                1186.9811602120394
180                                               791.3152434800296                                 965.585569792452                                  1198.809039572085                                 1198.386659831238                                 1195.3183216759476                                1193.722426079696                                 1191.8776004621268
185                                               803.7029272549054                                 979.1695789607878                                 1204.2061646596248                                1203.57868081569                                  1200.4149473213329                                1198.7928176336563                                1196.9257124363116
190                                               818.7511739012494                                 992.5907996932459                                 1209.7305611255138                                1208.8971424236215                                1205.6387897206305                                1203.9908230170045                                1202.1018124565717
195                                               835.2671499236254                                 1005.7438215979117                                1215.3922771122625                                1214.3619831230535                                1211.011616804407                                 1209.3381024318387                                1207.427126057236
200                                               853.2508553220333                                 1018.6286446747862                                1221.1913126198706                                1219.9732029139864                                1216.5334285726613                                1214.8346558781604                                1212.901653238303
205                                               872.5141829782214                                 1031.2701383353728                                1227.1142837700236                                1225.715964099903                                 1222.1888813269543                                1220.4650546057273                                1218.5099381602981
210                                               891.3219324491325                                 1043.8977113030805                                1233.0377305267693                                1231.4533958499183                                1227.8364366046399                                1226.0869755886797                                1224.109407911807
215                                               910.827693534805                                  1056.3588488846221                                1239.0437311530295                                1237.2764921440448                                1233.5701915041104                                1231.7950375159412                                1229.7948473097804
220                                               931.0314662352381                                 1068.6535510799986                                1245.132285648804                                 1243.1852529822818                                1239.390146025366                                 1237.5892403875123                                1235.5662563542187
225                                               951.9332505504332                                 1080.7818178892094                                1251.303394014093                                 1249.1796783646287                                1245.2963001684075                                1243.4695842033925                                1241.423635045122
230                                               971.1313192299514                                 1092.7583681328165                                1257.4220737980904                                1255.1205583800665                                1251.148184050095                                 1249.295370489533                                 1247.226146237666
235                                               989.5769457910025                                 1104.5773719963809                                1263.541788703104                                 1261.063031138745                                 1257.0014348289678                                1255.122326944509                                 1253.0295725549972
240                                               1007.6137504696611                                1116.236723626876                                 1269.6818509560326                                1267.0270136993067                                1262.8761498305616                                1260.970583598848                                 1258.854063867565
245                                               1025.2417332659275                                1127.736423024303                                 1275.8422605568762                                1273.012506061751                                 1268.772329054878                                 1266.8401404525503                                1264.69962017537
250                                               1042.011866673875                                 1139.0234420239194                                1281.9659270169996                                1278.963158282997                                 1274.6342620477894                                1272.6755255489488                                1270.5110018631099
