% Model:              batchmodel_BILLETTA_r_0.0335556_COIL_kr_2.7711_COIL_kw_4.5299_FUNZ_freq_6066_FUNZ_I_eff_174.7421.mph
% Version:            COMSOL 5.6.0.280
% Date:               Jan 27 2022, 20:39
% Table:              Tabella delle sonde 1 - 
% Tempo (s)                                       Temperatura (degC), Punto: (0, 0.5)               Temperatura (degC), Punto: (0.5*BILLETTA_r, 0.5)  Temperatura (degC), Punto: (BILLETTA_r-10*FUNZ_depth_billetta, 0.5)Temperatura (degC), Punto: (BILLETTA_r-5*FUNZ_depth_billetta, 0.5)Temperatura (degC), Punto: (BILLETTA_r-2*FUNZ_depth_billetta, 0.5)Temperatura (degC), Punto: (BILLETTA_r-FUNZ_depth_billetta, 0.5)Temperatura (degC), Punto: (BILLETTA_r-0.01[mm], 0.5)
0                                                 20                                                19.999999999999886                                20.00000004213706                                 20.090157184297993                                20.85365253286659                                 21.321059221248106                                21.734291631054134
3.8100624237297973                                24.082529511905307                                105.27218009750203                                1266.0354888533188                                1372.239262367461                                 1396.8356543594086                                1398.901226414097                                 1397.973454087538
