% Model:              batchmodel_BILLETTA_r_0.0335556_COIL_kr_2.7711_COIL_kw_5.8583_FUNZ_freq_4639.7_FUNZ_I_eff_85.0125.mph
% Version:            COMSOL 5.6.0.280
% Date:               Jan 27 2022, 20:59
% Table:              Tabella delle sonde 1 - 
% Tempo (s)                                       Temperatura (degC), Punto: (0, 0.5)               Temperatura (degC), Punto: (0.5*BILLETTA_r, 0.5)  Temperatura (degC), Punto: (BILLETTA_r-10*FUNZ_depth_billetta, 0.5)Temperatura (degC), Punto: (BILLETTA_r-5*FUNZ_depth_billetta, 0.5)Temperatura (degC), Punto: (BILLETTA_r-2*FUNZ_depth_billetta, 0.5)Temperatura (degC), Punto: (BILLETTA_r-FUNZ_depth_billetta, 0.5)Temperatura (degC), Punto: (BILLETTA_r-0.01[mm], 0.5)
0                                                 20                                                19.999999999999943                                20.000000000092996                                20.000531254308044                                20.197190702637613                                20.396705297344567                                20.597152317938423
5                                                 26.83028646955745                                 76.36902907268825                                 497.8693452404269                                 614.6450644163225                                 675.4270630006549                                 687.1882499507311                                 691.3993658897391
10                                                88.81054397227962                                 224.18551334619536                                875.5354945032865                                 1039.4956270312132                                1094.2125112373064                                1101.2957956377227                                1102.5842913521738
15                                                202.0861323184368                                 370.9950801919541                                 1052.2914394114923                                1122.0157607289393                                1138.38921446729                                  1139.662881724496                                 1138.9095374505428
20                                                317.97550683873624                                491.63242483334466                                1104.448701085038                                 1141.9533810965659                                1149.412274757835                                 1149.4083633680793                                1148.2078371180874
25                                                419.2791705734927                                 586.2278944175125                                 1127.8043186004234                                1151.4573981082244                                1155.2436300582262                                1154.7175743062471                                1153.3317356479788
30                                                504.7301272080758                                 661.7161946297724                                 1145.1599673459186                                1161.156881650163                                 1162.88743472154                                  1162.0588389030631                                1160.5544094702095
35                                                576.5246169577839                                 724.6284166111157                                 1160.626709379554                                 1171.9420032348444                                1172.358088017937                                 1171.3232626338972                                1169.7264536389707
40                                                635.8643200453628                                 780.4169522700009                                 1174.9928610051475                                1183.4517309609028                                1183.045187586663                                 1181.8701739050816                                1180.199092503045
45                                                683.7415842055308                                 839.1420087166958                                 1189.8714293964367                                1196.3665182719756                                1195.3597945779375                                1194.0709741864166                                1192.3293523400198
50                                                720.4394848129102                                 897.5065086022602                                 1205.7056567394648                                1210.928726701859                                 1209.4968053544048                                1208.1156301907195                                1206.3070530708942
55                                                749.0335112214101                                 952.8306131130868                                 1223.2279186353362                                1227.5351043348364                                1225.7658981805052                                1224.3022762252058                                1222.4270340502726
60                                                781.542931120386                                  1003.5190130651268                                1243.073057609679                                 1246.6664032290196                                1244.5935827023436                                1243.045473336847                                 1241.0959951469576
65                                                832.0305498219492                                 1050.9040426515357                                1265.2471070436509                                1268.203663802678                                 1265.8225764653212                                1264.182004260153                                 1262.1480471136133
70                                                897.0526593036305                                 1095.4761617284053                                1289.4304959039946                                1291.7610229155725                                1289.0505965269413                                1287.308000957984                                 1285.1796233081204
75                                                969.6542295947                                    1137.931193365639                                 1315.071451103072                                 1316.7086953918856                                1313.6306115387529                                1311.7753521821596                                1309.543701417108
80                                                1036.9310598403194                                1179.0314156784957                                1341.2492222022424                                1342.1013156647682                                1338.620931947633                                 1336.6453319614538                                1334.3048426432902
85                                                1087.1960066190863                                1213.7778398243536                                1360.2396224559238                                1360.2802067976545                                1356.4642983797694                                1354.3968128586212                                1351.9749798470075
90                                                1135.3662001658859                                1247.7933068451557                                1378.2157206345037                                1377.4473536568162                                1373.3073639615486                                1371.1523948249155                                1368.6533507357958
94.07199944682276                                 1174.5960004610688                                1275.4954994235804                                1392.8554530023448                                1391.4282761596228                                1387.0243547079094                                1384.7981389245037                                1382.236214142406
