% Model:              batchmodel_BILLETTA_r_0.0131664_COIL_kr_2.7711_COIL_kw_4.5299_FUNZ_freq_4639.7_FUNZ_I_eff_127.5152.mph
% Version:            COMSOL 5.6.0.401
% Date:               Jan 27 2022, 13:44
% Table:              Tabella delle sonde 1 - 
% Tempo (s)                                       Temperatura (degC), Punto: (0, 0.5)               Temperatura (degC), Punto: (0.5*BILLETTA_r, 0.5)  Temperatura (degC), Punto: (BILLETTA_r-10*FUNZ_depth_billetta, 0.5)Temperatura (degC), Punto: (BILLETTA_r-5*FUNZ_depth_billetta, 0.5)Temperatura (degC), Punto: (BILLETTA_r-2*FUNZ_depth_billetta, 0.5)Temperatura (degC), Punto: (BILLETTA_r-FUNZ_depth_billetta, 0.5)Temperatura (degC), Punto: (BILLETTA_r-0.01[mm], 0.5)
0                                                 19.999999999999943                                20.000000000000057                                20.000000002114064                                20.016112903410374                                20.39555690543648                                 20.66257004666153                                 20.9097647117801
5                                                 489.9591530420737                                 663.4066508802965                                 1084.4711648855869                                1191.1115769574449                                1213.8434524125546                                1215.6411459796232                                1214.8397373377989
10                                                959.7743721585579                                 1173.977172131988                                 1252.4805383426797                                1262.8143955222113                                1262.5624981145006                                1261.2409913106962                                1259.3220606651848
15                                                1298.3227129257411                                1347.224350589011                                 1382.571672150551                                 1386.522407565093                                 1384.0956488844477                                1382.2058885760102                                1379.7717654531452
15.270438325416942                                1307.2784778154232                                1354.8700010184343                                1388.5097558141247                                1392.0497829360552                                1389.5020766806524                                1387.585456244236                                 1385.1276160153038
