% Model:              batchmodel_BILLETTA_r_0.0257427_COIL_kr_1.9397_COIL_kw_3.7744_FUNZ_freq_6066_FUNZ_I_eff_61.5962.mph
% Version:            COMSOL 5.6.0.280
% Date:               Jan 27 2022, 13:40
% Table:              Tabella delle sonde 1 - 
% Tempo (s)                                       Temperatura (degC), Punto: (0, 0.5)               Temperatura (degC), Punto: (0.5*BILLETTA_r, 0.5)  Temperatura (degC), Punto: (BILLETTA_r-10*FUNZ_depth_billetta, 0.5)Temperatura (degC), Punto: (BILLETTA_r-5*FUNZ_depth_billetta, 0.5)Temperatura (degC), Punto: (BILLETTA_r-2*FUNZ_depth_billetta, 0.5)Temperatura (degC), Punto: (BILLETTA_r-FUNZ_depth_billetta, 0.5)Temperatura (degC), Punto: (BILLETTA_r-0.01[mm], 0.5)
0                                                 20                                                20                                                20.00000000002285                                 20.00010389974352                                 20.141323055334567                                20.331837022192587                                20.527737733876165
5                                                 48.25474673023149                                 109.35102174488839                                363.42604481030946                                424.41372456918793                                459.52676533586816                                466.93420205338475                                469.76479447720226
10                                                165.94816403527284                                279.7613849663858                                 657.3820597500348                                 738.6554461381779                                 784.9977705034654                                 794.3351972080974                                 797.5439900148859
15                                                312.02239275231716                                442.35807838734183                                903.4945957889878                                 1013.8521329887277                                1055.5127556421585                                1061.567886295721                                 1062.8538164875135
20                                                439.76175210839426                                570.3116360410003                                 1015.5295318184013                                1073.3251720191429                                1088.6664868546368                                1090.1380743001569                                1089.7302291629408
25                                                546.5234152306123                                 668.4445304844329                                 1061.676533520265                                 1093.1016101793152                                1100.2926832727162                                1100.5447823205109                                1099.7026886354538
30                                                632.009314548576                                  744.643867025008                                  1087.303988581526                                 1106.3604889910807                                1109.907219290983                                 1109.6071253732912                                1108.5595381044668
35                                                696.0657102211384                                 811.2669065454355                                 1105.828770662365                                 1118.0298555333088                                1119.4855072127216                                1118.8569854147295                                1117.6786910711485
40                                                740.3735316591786                                 877.9658795349243                                 1120.5209592031397                                1128.4928447865927                                1128.6597427812067                                1127.8224074508416                                1126.554247704627
45                                                787.0122543152673                                 938.189693517044                                  1133.614941552466                                 1138.8218489124542                                1138.1236643366096                                1137.1391106316946                                1135.8009326830297
50                                                848.9763094305953                                 988.9912643250835                                 1146.2927962557224                                1149.7450458868825                                1148.4670302294994                                1147.3753476639577                                1145.9784033684805
55                                                919.8439840292095                                 1034.8159514622303                                1159.640084281049                                 1161.5728090429434                                1159.7779176850709                                1158.58637489668                                  1157.1307510288739
60                                                982.6719459970337                                 1074.7945113263886                                1174.7110832284939                                1175.5184852199404                                1173.3086386529785                                1172.0275904069686                                1170.5113563266655
65                                                1034.9176734059365                                1109.8508070040248                                1191.6128899381392                                1191.5257597929808                                1188.9561903564813                                1187.5890409936587                                1186.0078099955467
70                                                1082.3779588688408                                1142.7351727220662                                1209.2239378165177                                1208.336921589986                                 1205.4330377595952                                1203.9823945318994                                1202.3355924090529
75                                                1123.3004449462728                                1172.7408830750464                                1227.6091804943153                                1226.0356293866585                                1222.8328521384387                                1221.3040293255817                                1219.593184766688
80                                                1158.8658847524493                                1200.3878349099996                                1246.6287952473212                                1244.4615887717855                                1240.9889419097044                                1239.3862940109047                                1237.6126596172662
85                                                1190.6474284438964                                1226.1326406052713                                1265.393145169783                                 1262.6969277501785                                1258.9712989099016                                1257.2966107997936                                1255.460060260793
90                                                1218.670866731647                                 1249.982786005654                                 1283.8876452786558                                1280.7265984439878                                1276.7646762970767                                1275.0196907230752                                1273.1200751217834
95                                                1242.6720740347137                                1271.8671820866393                                1302.2958135251802                                1298.7387221270578                                1294.5596036347056                                1292.7466565974282                                1290.7842078507047
100                                               1266.0288648585365                                1292.9311616192745                                1319.7177800867998                                1315.7687436224783                                1311.3764333477593                                1309.4971307808132                                1307.4735374946135
105                                               1287.1518709217412                                1312.6358094041052                                1336.5769621023278                                1332.2705165688517                                1327.6761205242592                                1325.7324118808106                                1323.648677242919
110                                               1306.4165600103229                                1330.8679069597652                                1352.3819239839186                                1347.7568804377138                                1342.976887842874                                 1340.972746505537                                 1338.8318640707753
115                                               1324.6610268144705                                1347.374735380391                                 1366.0357152817433                                1361.1404272878203                                1356.2033434060268                                1354.1472604406563                                1351.9566665312664
120                                               1341.3966261735886                                1362.3036406303313                                1378.1779051697831                                1373.0551626012525                                1367.9824868268233                                1365.8803192961254                                1363.6448599103392
121.8150515423078                                 1347.0985374175061                                1367.3326193578796                                1382.2116850598882                                1377.016960068102                                 1371.9003818470806                                1369.7829341427428                                1367.532386994491
