% Model:              batchmodel_BILLETTA_r_0.0131664_COIL_kr_1.4848_COIL_kw_5.3284_FUNZ_freq_7167.5_FUNZ_I_eff_85.0125.mph
% Version:            COMSOL 5.6.0.401
% Date:               Jan 27 2022, 12:12
% Table:              Tabella delle sonde 1 - 
% Tempo (s)                                       Temperatura (degC), Punto: (0, 0.5)               Temperatura (degC), Punto: (0.5*BILLETTA_r, 0.5)  Temperatura (degC), Punto: (BILLETTA_r-10*FUNZ_depth_billetta, 0.5)Temperatura (degC), Punto: (BILLETTA_r-5*FUNZ_depth_billetta, 0.5)Temperatura (degC), Punto: (BILLETTA_r-2*FUNZ_depth_billetta, 0.5)Temperatura (degC), Punto: (BILLETTA_r-FUNZ_depth_billetta, 0.5)Temperatura (degC), Punto: (BILLETTA_r-0.01[mm], 0.5)
0                                                 20                                                20                                                20.00000000030127                                 20.001535550719154                                20.309654561179514                                20.6025267003385                                  20.869516741042162
5                                                 384.987524022495                                  514.0655731473948                                 837.9030918896673                                 995.4490423998988                                 1054.919830731084                                 1063.6302904497948                                1065.8563643495054
10                                                718.1016335264171                                 877.2253525714565                                 1124.5833003919815                                1147.0294272431133                                1150.7386796794558                                1150.3970630129452                                1149.3276545804601
15                                                1020.5746959581328                                1125.7084155862217                                1186.6939380552667                                1191.184861947308                                 1190.2169020681208                                1189.1671590328951                                1187.7855687288638
20                                                1215.7505252741148                                1251.1862272115181                                1281.5854146723268                                1282.5331807779248                                1280.1263261018562                                1278.705817248911                                 1277.0207110714232
25                                                1320.034089926824                                 1349.041627059516                                 1370.8982141599304                                1369.8673619436731                                1366.427295071087                                 1364.6874659158957                                1362.7080381688734
26.76664124347485                                 1350.8016995271255                                1376.4091962674142                                1394.3707268902676                                1392.7947852401999                                1389.1208052566822                                1387.3046851458844                                1385.2476443667674
