% Model:              batchmodel_BILLETTA_r_0.0131664_COIL_kr_1.9397_COIL_kw_4.5299_FUNZ_freq_6066_FUNZ_I_eff_162.3068.mph
% Version:            COMSOL 5.6.0.401
% Date:               Jan 27 2022, 12:56
% Table:              Tabella delle sonde 1 - 
% Tempo (s)                                       Temperatura (degC), Punto: (0, 0.5)               Temperatura (degC), Punto: (0.5*BILLETTA_r, 0.5)  Temperatura (degC), Punto: (BILLETTA_r-10*FUNZ_depth_billetta, 0.5)Temperatura (degC), Punto: (BILLETTA_r-5*FUNZ_depth_billetta, 0.5)Temperatura (degC), Punto: (BILLETTA_r-2*FUNZ_depth_billetta, 0.5)Temperatura (degC), Punto: (BILLETTA_r-FUNZ_depth_billetta, 0.5)Temperatura (degC), Punto: (BILLETTA_r-0.01[mm], 0.5)
0                                                 20                                                19.999999999999943                                20.000000030618082                                20.073256354684133                                20.75863805236753                                 21.178809449321136                                21.546480096674713
5                                                 613.8103322146333                                 935.3638954562681                                 1312.9915894318806                                1347.6933438048372                                1353.635049705128                                 1353.140033509916                                 1351.4726077762061
7.649434715183405                                 1024.716266836621                                 1265.9490787906666                                1386.6930624138695                                1399.5859015909705                                1400.39245003028                                  1399.179053964574                                 1397.1747198799408
