% Model:              batchmodel_BILLETTA_r_0.0445341_COIL_kr_1.4848_COIL_kw_5.8583_FUNZ_freq_4639.7_FUNZ_I_eff_85.0125.mph
% Version:            COMSOL 5.6.0.401
% Date:               Jan 27 2022, 13:38
% Table:              Tabella delle sonde 1 - 
% Tempo (s)                                       Temperatura (degC), Punto: (0, 0.5)               Temperatura (degC), Punto: (0.5*BILLETTA_r, 0.5)  Temperatura (degC), Punto: (BILLETTA_r-10*FUNZ_depth_billetta, 0.5)Temperatura (degC), Punto: (BILLETTA_r-5*FUNZ_depth_billetta, 0.5)Temperatura (degC), Punto: (BILLETTA_r-2*FUNZ_depth_billetta, 0.5)Temperatura (degC), Punto: (BILLETTA_r-FUNZ_depth_billetta, 0.5)Temperatura (degC), Punto: (BILLETTA_r-0.01[mm], 0.5)
0                                                 20                                                20                                                20.000000000044167                                20.00022244238346                                 20.09390086222936                                 20.27092439276055                                 20.410748946117565
5                                                 20.307219664148363                                36.40532521687703                                 481.20775122744783                                596.3429270037029                                 658.36398613492                                   670.5015869266593                                 674.8699220774488
10                                                31.639088323130807                                114.6123174884595                                 851.6068042188118                                 1025.499546774492                                 1088.2182427319271                                1097.1099055915083                                1099.126203218692
15                                                72.63433440913872                                 216.21983402695548                                1034.5655208331113                                1115.868197536588                                 1135.5370069129235                                1137.303221056442                                 1136.7221107323662
20                                                138.0177095452858                                 311.45447732549417                                1088.9363035498218                                1135.654361816839                                 1145.8267489619684                                1146.2269105932592                                1145.1700604711868
25                                                210.99119326771876                                394.23622535064317                                1114.7826544379705                                1146.0781841613789                                1152.0059682472297                                1151.793575573413                                 1150.5198293851513
30                                                282.37611465322243                                465.2203414495657                                 1131.2296945955904                                1154.146717907326                                 1157.8289922006857                                1157.2908532634488                                1155.8955374418624
35                                                348.0050287979378                                 526.3903382560968                                 1144.680974526585                                 1162.0913342276535                                1164.2564458403976                                1163.4907928215157                                1162.0041906445226
40                                                407.0178230679685                                 579.3812347307618                                 1156.5854710097315                                1170.1953441765872                                1171.293048893408                                 1170.3610400912635                                1168.8014392325476
45                                                459.75691623780074                                625.5865979555706                                 1167.4173931104106                                1178.3586116677902                                1178.6954279289457                                1177.6392524211687                                1176.0193506180658
50                                                507.01908455980674                                666.1878378821842                                 1177.8462133187481                                1186.9274009702617                                1186.714113678392                                 1185.5614638186134                                1183.8884574199192
55                                                549.3676329451699                                 702.2395036756528                                 1188.3843215663023                                1196.1042973216904                                1195.4668885415726                                1194.2333551097431                                1192.5102475565127
60                                                587.482035155959                                  735.0297854204102                                 1199.3960255491138                                1206.033365535303                                 1205.0469303756577                                1203.7422183751778                                1201.9706889189933
65                                                621.7526247110046                                 768.0586452745396                                 1211.4215536935344                                1217.1964268543843                                1215.914268481747                                 1214.543514496234                                 1212.7226547721407
70                                                652.5116688568727                                 803.4534081314863                                 1224.8309099529533                                1229.8853763703141                                1228.3374797522488                                1226.9018785802887                                1225.0289613641926
75                                                679.613385587879                                  840.2807117868398                                 1239.461755369818                                 1243.9721453302723                                1242.1987262766856                                1240.7012021720952                                1238.7742982629875
80                                                703.4480495249571                                 876.9199644840675                                 1255.0851348251495                                1259.1054495376115                                1257.1089049753473                                1255.546312575702                                 1253.5607164525404
85                                                724.0646190703031                                 913.167869419443                                  1271.6723268079936                                1275.2412217841102                                1273.0192044112364                                1271.3876369448417                                1269.3382948082563
90                                                741.3321603535148                                 949.5681215698943                                 1289.3001438453985                                1292.497314979004                                 1290.060165412473                                 1288.3577524131097                                1286.2405418958747
95                                                762.4339192883496                                 984.8336755230818                                 1307.3621195562728                                1310.1430302765416                                1307.4708664594841                                1305.6927849317535                                1303.5040490808628
100                                               788.5082487691312                                 1018.7605689076967                                1325.762145194165                                 1328.062571398004                                 1325.1307217858139                                1323.2716808371888                                1321.0078364553765
105                                               817.0203588452836                                 1051.802968240701                                 1344.7142277562748                                1346.5137839069898                                1343.3082417897053                                1341.3639924022345                                1339.0212920590607
110                                               850.8202405677799                                 1083.7734086485325                                1361.8524255255634                                1363.0963924167136                                1359.6211304251437                                1357.5971094883957                                1355.1819619788116
115                                               890.4568223254543                                 1114.635783073601                                 1376.7210414308547                                1377.3480869489108                                1373.6105406617776                                1371.5140506394628                                1369.0348209191052
120                                               934.8732740062993                                 1144.4596070055281                                1390.1974110164                                   1390.1589346162482                                1386.1598725356484                                1383.9946241753814                                1381.4559110811056
121.74391740331677                                951.4893038449596                                 1154.6173797049505                                1394.5702665242907                                1394.2882354132803                                1390.1981417085126                                1388.0097844056127                                1385.451406216363
