% Model:              batchmodel_BILLETTA_r_0.0335556_COIL_kr_1.4848_COIL_kw_5.8583_FUNZ_freq_4639.7_FUNZ_I_eff_61.5962.mph
% Version:            COMSOL 5.6.0.280
% Date:               Jan 27 2022, 16:56
% Table:              Tabella delle sonde 1 - 
% Tempo (s)                                       Temperatura (degC), Punto: (0, 0.5)               Temperatura (degC), Punto: (0.5*BILLETTA_r, 0.5)  Temperatura (degC), Punto: (BILLETTA_r-10*FUNZ_depth_billetta, 0.5)Temperatura (degC), Punto: (BILLETTA_r-5*FUNZ_depth_billetta, 0.5)Temperatura (degC), Punto: (BILLETTA_r-2*FUNZ_depth_billetta, 0.5)Temperatura (degC), Punto: (BILLETTA_r-FUNZ_depth_billetta, 0.5)Temperatura (degC), Punto: (BILLETTA_r-0.01[mm], 0.5)
0                                                 20                                                20                                                20.00000000000591                                 20.000020517301436                                20.052920670874414                                20.1731234964264                                  20.302239331280987
5                                                 23.35587133613558                                 52.258363863605496                                273.796132942188                                  325.2377784474413                                 356.6924508399421                                 363.66490724658604                                366.3991266866552
10                                                59.964471541482396                                147.26989813666023                                482.388855720827                                  549.2807469103308                                 583.3068129081154                                 590.4957174496853                                 593.1920123668709
15                                                138.39361831235937                                256.0674903045891                                 689.8186506681567                                 789.6839146358369                                 843.8256544067359                                 854.1116678465356                                 857.4357217171463
20                                                232.34456212458775                                366.3433717664443                                 875.9851638745387                                 998.5008283819792                                 1047.2050241523298                                1054.9344003382635                                1056.8095941780625
25                                                324.7173874947399                                 466.0988317498038                                 989.090363438704                                  1063.407766055293                                 1084.035821067669                                 1086.1232275158977                                1085.786101925244
30                                                408.89066378261964                                549.6441925173527                                 1036.0906408264427                                1081.7935695472092                                1092.969568025615                                 1093.7049697411676                                1092.9023532290857
35                                                482.7763520868816                                 617.7709451485509                                 1060.4523804913342                                1091.9811112889242                                1099.0053722255611                                1099.127374072014                                 1098.1049288215677
40                                                546.919766705315                                  673.0939294504964                                 1076.1431466863237                                1099.6723296380233                                1104.3411975315075                                1104.1057513037272                                1102.9502639347415
45                                                601.8160289726914                                 718.5330879767413                                 1088.2684768092417                                1106.3920600858733                                1109.4144026256758                                1108.9232992251204                                1107.6694822403033
50                                                648.0438834730342                                 759.2016028357313                                 1099.5905422110814                                1113.2501661246556                                1114.9064756869748                                1114.2004682426605                                1112.8609451782104
55                                                685.6941583966826                                 797.5056509774769                                 1109.7174484222733                                1119.9393187975502                                1120.5339124779325                                1119.6575311639608                                1118.2468681944815
60                                                714.9443400415004                                 837.0108052390962                                 1118.480006830368                                 1126.2012279305527                                1126.0167181469365                                1125.0118797842933                                1123.5444383614008
65                                                739.194788480843                                  875.0636031928906                                 1126.5355212986224                                1132.3547719134149                                1131.567791092155                                 1130.460407578259                                 1128.9446543518811
70                                                759.8305567900453                                 911.2325121425982                                 1134.11605716741                                  1138.481644543704                                 1137.222821804915                                 1136.0319741659596                                1134.4739927321243
75                                                786.5969177580197                                 944.6642193561594                                 1141.7582274739066                                1144.8827182024752                                1143.2127727167763                                1141.9467338635964                                1140.3483752280986
80                                                818.7362956339508                                 975.5097202953001                                 1149.4264612467937                                1151.5450234815203                                1149.5313588314139                                1148.1993908578838                                1146.5628516727124
85                                                859.1725756352824                                 1004.6513583339705                                1157.5358113609732                                1158.7730796530632                                1156.4486560607197                                1155.0542159435709                                1153.3789921049092
90                                                904.8100669137904                                 1031.9478785228148                                1166.0176926265617                                1166.5234333793214                                1163.928902229664                                 1162.4766750417075                                1160.7627608130174
95                                                948.1154282112203                                 1057.7982096486694                                1175.1629575083793                                1175.0223298785932                                1172.1780425986635                                1170.6691718329544                                1168.914751083394
100                                               985.0142246690187                                 1080.2537975544383                                1185.2513563846883                                1184.602361018336                                 1181.543118518628                                 1179.9803163109418                                1178.183349490394
105                                               1014.2789145410471                                1100.216926460464                                 1195.927690045121                                 1194.833420370133                                 1191.574871751035                                 1189.9591357016634                                1188.1183182834466
110                                               1043.5436044130756                                1120.1800553664903                                1206.6040237055531                                1205.0644797219293                                1201.6066249834412                                1199.937955092385                                 1198.0532870764996
115                                               1072.8082942851042                                1140.1431842725165                                1217.2803573659858                                1215.295539073726                                 1211.6383782158478                                1209.9167744831057                                1207.9882558695522
120                                               1096.483173641992                                 1157.7596376014385                                1228.1972326017399                                1225.839879378117                                 1222.0076975611337                                1220.237337485817                                 1218.2668536135961
125                                               1119.1682748018302                                1174.9605690955013                                1239.1567001232415                                1236.4396918055058                                1232.4367891612546                                1230.6184124459928                                1228.6062971488604
130                                               1141.853375961668                                 1192.1615005895642                                1250.1161676447432                                1247.039504232895                                 1242.8658807613756                                1240.999487406169                                 1238.9457406841252
135                                               1160.6014427831437                                1207.3262295173622                                1260.7601352888883                                1257.3773949458669                                1253.0496087126908                                1251.1376487490043                                1249.0429945785695
140                                               1179.1381936833664                                1222.3816675464363                                1271.3871688294644                                1267.7012273033297                                1263.2201670441773                                1261.2627719747134                                1259.1272492145185
145                                               1197.555377414984                                 1237.3658704161312                                1281.9892879560807                                1278.0017040762423                                1273.3678928012255                                1271.3651605676469                                1269.1888243732274
150                                               1213.6294724940763                                1250.954119065695                                 1292.1031737213625                                1287.8444949662166                                1283.0681818020307                                1281.0220317104545                                1278.8059629329227
155                                               1229.703567573169                                 1264.542367715259                                 1302.2170594866434                                1297.6872858561915                                1292.768470802836                                 1290.6789028532617                                1288.4231014926186
160                                               1245.2670422797537                                1277.7789495308098                                1312.1339266839823                                1307.3403540886507                                1302.2820611299617                                1300.149815434013                                 1297.8548564309672
165                                               1257.8920250086267                                1288.9917770541006                                1320.9170015131958                                1315.9016160847864                                1310.7212474881217                                1308.550583202274                                 1306.2197751961885
170                                               1270.5170077374996                                1300.2046045773923                                1329.7000763424094                                1324.4628780809226                                1319.160433846282                                 1316.9513509705353                                1314.5846939614098
175                                               1283.1419904663726                                1311.417432100684                                 1338.483151171623                                 1333.0241400770587                                1327.599620204442                                 1325.352118738797                                 1322.9496127266307
180                                               1295.7669731952456                                1322.6302596239757                                1347.2662260008365                                1341.585402073195                                 1336.038806562602                                 1333.752886507058                                 1331.314531491852
185                                               1307.895605960396                                 1333.347201354541                                 1355.608588048855                                 1349.7194704301037                                1344.0576225921695                                1341.7352247948847                                1339.2627063554328
190                                               1317.167869365716                                 1341.2104449127642                                1361.4147587466232                                1355.3951467028228                                1349.657312976255                                 1347.3096065308473                                1344.8126247496998
195                                               1326.4401327710357                                1349.0736884709868                                1367.2209294443915                                1361.0708229755414                                1355.257003360341                                 1352.8839882668099                                1350.362543143966
200                                               1335.7123961763555                                1356.9369320292094                                1373.0271001421597                                1366.7464992482605                                1360.8566937444275                                1358.4583700027724                                1355.9124615382325
205                                               1344.9846595816753                                1364.8001755874316                                1378.8332708399275                                1372.4221755209792                                1366.456384128513                                 1364.032751738735                                 1361.462379932499
210                                               1353.6840091759318                                1372.1339029037294                                1384.2542177579348                                1377.7214977581225                                1371.6847772323954                                1369.2375088082554                                1366.644263697252
215                                               1359.0863837014858                                1376.4203972603955                                1387.4582985902966                                1380.8549970593567                                1374.7764477572978                                1372.3151687708341                                1369.7082006181818
220                                               1364.4887582270399                                1380.706891617061                                 1390.662379422658                                 1383.988496360591                                 1377.8681182822002                                1375.392828733413                                 1372.772137539111
225                                               1369.8911327525939                                1384.993385973727                                 1393.8664602550193                                1387.1219956618256                                1380.959788807103                                 1378.4704886959917                                1375.8360744600404
230                                               1375.293507278148                                 1389.2798803303926                                1397.0705410873811                                1390.2554949630598                                1384.0514593320054                                1381.5481486585709                                1378.9000113809698
234.25978002358323                                1379.8960926949217                                1392.931784936738                                 1399.8002769921086                                1392.9250985085214                                1386.685426600301                                 1384.1701795441654                                1381.5103508388283
