% Model:              batchmodel_BILLETTA_r_0.0131664_COIL_kr_2.7711_COIL_kw_3.2356_FUNZ_freq_6066_FUNZ_I_eff_162.3068.mph
% Version:            COMSOL 5.6.0.401
% Date:               Jan 27 2022, 13:36
% Table:              Tabella delle sonde 1 - 
% Tempo (s)                                       Temperatura (degC), Punto: (0, 0.5)               Temperatura (degC), Punto: (0.5*BILLETTA_r, 0.5)  Temperatura (degC), Punto: (BILLETTA_r-10*FUNZ_depth_billetta, 0.5)Temperatura (degC), Punto: (BILLETTA_r-5*FUNZ_depth_billetta, 0.5)Temperatura (degC), Punto: (BILLETTA_r-2*FUNZ_depth_billetta, 0.5)Temperatura (degC), Punto: (BILLETTA_r-FUNZ_depth_billetta, 0.5)Temperatura (degC), Punto: (BILLETTA_r-0.01[mm], 0.5)
0                                                 20                                                19.999999999999886                                20.000000034260836                                20.073785723594142                                20.76219054306324                                 21.185527617847697                                21.556027559220865
5                                                 612.8030423008938                                 933.3646185612757                                 1312.7024173773598                                1347.5604867946636                                1353.5394375804017                                1353.049454566231                                 1351.3838582746462
7.611752300009865                                 1012.7295673639497                                1262.6103895934307                                1385.3760371395156                                1398.542521916328                                 1399.4074935381186                                1398.2022088815188                                1396.2027788049877
