% Model:              batchmodel_BILLETTA_r_0.0542379_COIL_kr_1.6756_COIL_kw_5.8583_FUNZ_freq_6066_FUNZ_I_eff_162.3068.mph
% Version:            COMSOL 5.6.0.401
% Date:               Jan 28 2022, 00:07
% Table:              Tabella delle sonde 1 - 
% Tempo (s)                                       Temperatura (degC), Punto: (0, 0.5)               Temperatura (degC), Punto: (0.5*BILLETTA_r, 0.5)  Temperatura (degC), Punto: (BILLETTA_r-10*FUNZ_depth_billetta, 0.5)Temperatura (degC), Punto: (BILLETTA_r-5*FUNZ_depth_billetta, 0.5)Temperatura (degC), Punto: (BILLETTA_r-2*FUNZ_depth_billetta, 0.5)Temperatura (degC), Punto: (BILLETTA_r-FUNZ_depth_billetta, 0.5)Temperatura (degC), Punto: (BILLETTA_r-0.01[mm], 0.5)
0                                                 20                                                20                                                20.000000025024065                                20.06718486682729                                 20.765003275122183                                21.210244536462085                                21.60710952231932
5                                                 20.093686166295015                                36.590737650224696                                1269.6491369427413                                1360.9787942070411                                1382.023022377678                                 1383.6171203730319                                1382.5744961584578
6.141600403270998                                 20.498922595815657                                51.75352220715479                                 1311.7934108988734                                1379.4353192692388                                1394.254533481766                                 1394.9713922584456                                1393.6097194801637
