% Model:              batchmodel_BILLETTA_r_0.0542379_COIL_kr_1.4848_COIL_kw_5.3284_FUNZ_freq_6066_FUNZ_I_eff_162.3068.mph
% Version:            COMSOL 5.6.0.401
% Date:               Jan 27 2022, 21:51
% Table:              Tabella delle sonde 1 - 
% Tempo (s)                                       Temperatura (degC), Punto: (0, 0.5)               Temperatura (degC), Punto: (0.5*BILLETTA_r, 0.5)  Temperatura (degC), Punto: (BILLETTA_r-10*FUNZ_depth_billetta, 0.5)Temperatura (degC), Punto: (BILLETTA_r-5*FUNZ_depth_billetta, 0.5)Temperatura (degC), Punto: (BILLETTA_r-2*FUNZ_depth_billetta, 0.5)Temperatura (degC), Punto: (BILLETTA_r-FUNZ_depth_billetta, 0.5)Temperatura (degC), Punto: (BILLETTA_r-0.01[mm], 0.5)
0                                                 20                                                20                                                20.000000025024065                                20.06718488177279                                 20.76500335380223                                 21.21024464239167                                 21.60710965529205
5                                                 20.11344868136763                                 37.21622913129522                                 1268.3984051144917                                1358.8082480517                                   1379.605831814662                                 1381.1722807756164                                1380.1265744588518
6.401054252008959                                 20.70493789479349                                 56.234554637841484                                1319.9940727722437                                1383.0539294311325                                1396.6425183891738                                1397.1840757059203                                1395.758977133084
