% Model:              batchmodel_BILLETTA_r_0.0335556_COIL_kr_1.9397_COIL_kw_3.2356_FUNZ_freq_7167.5_FUNZ_I_eff_61.5962.mph
% Version:            COMSOL 5.6.0.280
% Date:               Jan 27 2022, 18:15
% Table:              Tabella delle sonde 1 - 
% Tempo (s)                                       Temperatura (degC), Punto: (0, 0.5)               Temperatura (degC), Punto: (0.5*BILLETTA_r, 0.5)  Temperatura (degC), Punto: (BILLETTA_r-10*FUNZ_depth_billetta, 0.5)Temperatura (degC), Punto: (BILLETTA_r-5*FUNZ_depth_billetta, 0.5)Temperatura (degC), Punto: (BILLETTA_r-2*FUNZ_depth_billetta, 0.5)Temperatura (degC), Punto: (BILLETTA_r-FUNZ_depth_billetta, 0.5)Temperatura (degC), Punto: (BILLETTA_r-0.01[mm], 0.5)
0                                                 20                                                19.999999999999943                                20.000000000035243                                20.000166072836066                                20.16828061357586                                 20.39395358827454                                 20.620167645275956
5                                                 25.74245072455716                                 64.66396940352195                                 391.1866657474027                                 455.4678557962633                                 492.33538939865446                                500.0037316186964                                 502.91514845129325
10                                                74.9246552154433                                  183.58353468157804                                689.6336196832615                                 786.4642374767144                                 838.2582768694666                                 848.1589457847034                                 851.4691009611998
15                                                171.38973973785932                                314.21253580594566                                923.1747477028038                                 1031.2529383701526                                1071.2681849848318                                1077.0074568644536                                1078.210022415663
20                                                276.7010759626984                                 429.09048424879927                                1024.839861141079                                 1078.9257289613001                                1092.9111014972755                                1094.2517708028422                                1093.8704073077492
25                                                372.6993929066439                                 523.5991107148958                                 1061.1282076143948                                1093.9273737103567                                1101.799173307615                                 1102.2175068098995                                1101.5072293504904
30                                                455.7634141944841                                 598.926454402832                                  1080.7144927067134                                1103.8029096408309                                1108.7811245508287                                1108.7656220271397                                1107.8970451355863
35                                                526.6054385156895                                 659.7417326321456                                 1095.382367590577                                 1112.4188370059328                                1115.5679480328995                                1115.2712391294617                                1114.295155440862
40                                                586.7663374228931                                 709.7827262887324                                 1108.8009079563335                                1121.3931760647715                                1123.1740846664634                                1122.657855414112                                 1121.5925512589738
45                                                636.9805958675347                                 752.3629832013404                                 1120.0201315015597                                1129.5059098961115                                1130.3242445610963                                1129.6512896369118                                1128.5190425516193
50                                                677.7542435031589                                 792.1199533694106                                 1129.9617793823068                                1137.2903327102104                                1137.429804630293                                 1136.642681974452                                 1135.457886024435
55                                                709.6979975931462                                 832.3685634700424                                 1139.2503255019074                                1145.0014432393928                                1144.635373517799                                 1143.7600854030388                                1142.5312594607622
60                                                734.0505551491723                                 872.5020385784886                                 1148.857092514882                                 1153.2596524242658                                1152.4521147235137                                1151.4967554607251                                1150.2252174507203
65                                                755.3345630192804                                 910.9974330138645                                 1158.815631014434                                 1162.1438894196822                                1160.9716115792658                                1159.9460665581255                                1158.6335381840722
70                                                780.1537143999095                                 946.7348711894102                                 1169.504352878952                                 1171.999843792938                                 1170.5275322775137                                1169.43920809457                                  1168.0858115023275
75                                                822.7494275769565                                 980.1681602329473                                 1181.2826088232832                                1183.1301815305146                                1181.4053106583165                                1180.2585872217223                                1178.862723621448
80                                                866.2673908147445                                 1012.9602252931176                                1193.5284908966182                                1194.764611154705                                 1192.7964696232966                                1191.5920361623512                                1190.1530807108652
85                                                912.6857165240939                                 1043.7357201665336                                1207.2449993575424                                1207.9843474678182                                1205.8021470831645                                1204.5421711388408                                1203.0581587815582
90                                                955.6628924862642                                 1072.844546636848                                 1221.4095146472596                                1221.6831382480896                                1219.2941868296039                                1217.9790916252914                                1216.449428869434
95                                                991.4289252298685                                 1098.4607658579498                                1236.5128560976127                                1236.3858174453053                                1233.8054289828701                                1232.4361014094934                                1230.859544554046
100                                               1027.1949579734724                                1124.0769850790512                                1251.6161975479658                                1251.088496642521                                 1248.316671136136                                 1246.8931111936963                                1245.2696602386582
105                                               1062.9609907170761                                1149.6932043001525                                1266.7195389983194                                1265.7911758397368                                1262.8279132894013                                1261.3501209778988                                1259.67977592327
110                                               1095.0247643420807                                1173.6158816531183                                1281.6650791014222                                1280.359110206739                                 1277.2103238545892                                1275.678746375458                                 1273.9611384572886
115                                               1123.1824648463785                                1195.751785536696                                 1296.4441306954382                                1294.7848818718371                                1291.4568104913956                                1289.87191966507                                  1288.1066598184912
120                                               1151.3401653506762                                1217.8876894202735                                1311.2231822894541                                1309.2106535369353                                1305.703297128202                                 1304.065092954681                                 1302.2521811796937
125                                               1178.5012987194655                                1239.4397399503305                                1325.7452048255227                                1323.3870036567682                                1319.7035519226097                                1318.0127493637865                                1316.152670924087
130                                               1202.1978963870165                                1258.962041840799                                 1339.3736735649768                                1336.696247269233                                 1332.8477891158213                                1331.1068737152286                                1329.2013156154785
135                                               1225.894494054568                                 1278.4843437312675                                1353.0021423044313                                1350.0054908816978                                1345.9920263090316                                1344.2009980666712                                1342.24996030687
140                                               1249.591091722119                                 1298.0066456217355                                1366.6306110438854                                1363.314734494163                                 1359.1362635022429                                1357.295122418113                                 1355.298604998262
145                                               1267.5015762236262                                1312.7676722108913                                1375.392414006748                                 1371.857427013017                                 1367.5713056373547                                1365.6968183271833                                1363.6695626789729
150                                               1285.1720695955428                                1327.3312149615767                                1383.9523618410376                                1380.2024168688959                                1375.8110240708688                                1373.9038859650655                                1371.8465035201675
155                                               1302.842562967459                                 1341.8947577122617                                1392.5123096753277                                1388.5474067247746                                1384.050742504383                                 1382.1109536029471                                1380.0234443613617
156.51520407098667                                1308.197443666153                                 1346.3081055650273                                1395.1063232365177                                1391.0762792451687                                1386.5477134872317                                1384.5980300621036                                1382.501391171521
