% Model:              batchmodel_BILLETTA_r_0.0131664_COIL_kr_1.4848_COIL_kw_4.5299_FUNZ_freq_4639.7_FUNZ_I_eff_61.5962.mph
% Version:            COMSOL 5.6.0.401
% Date:               Jan 27 2022, 12:05
% Table:              Tabella delle sonde 1 - 
% Tempo (s)                                       Temperatura (degC), Punto: (0, 0.5)               Temperatura (degC), Punto: (0.5*BILLETTA_r, 0.5)  Temperatura (degC), Punto: (BILLETTA_r-10*FUNZ_depth_billetta, 0.5)Temperatura (degC), Punto: (BILLETTA_r-5*FUNZ_depth_billetta, 0.5)Temperatura (degC), Punto: (BILLETTA_r-2*FUNZ_depth_billetta, 0.5)Temperatura (degC), Punto: (BILLETTA_r-FUNZ_depth_billetta, 0.5)Temperatura (degC), Punto: (BILLETTA_r-0.01[mm], 0.5)
0                                                 20                                                19.999999999999943                                20.000000000006878                                20.00002221741829                                 20.076541675023748                                20.23781196320556                                 20.386886729072728
5                                                 210.00134410407628                                268.86974727775316                                365.9701203896494                                 421.46334824132066                                454.40730340943276                                461.32270939059606                                463.93992356133776
10                                                481.3393850415713                                 556.7312893043428                                 684.3990223200584                                 763.6371445891331                                 809.1094026753514                                 817.7130419376198                                 820.5004075710902
15                                                682.5297588044814                                 768.3690064410952                                 969.4307820886271                                 1049.0408721109734                                1073.5048081902542                                1076.3541091992101                                1076.323255041851
20                                                833.6270719390644                                 961.2866355435282                                 1074.251639616597                                 1095.6689349356834                                1099.5261643651133                                1099.1653204101149                                1097.977539849554
25                                                1027.015311299429                                 1080.6034486090975                                1116.8845396226934                                1121.5446517907294                                1120.4903239444347                                1119.3675968012972                                1117.8737839995265
30                                                1118.2764883730824                                1139.3902125066857                                1151.2724515248547                                1150.4900893633899                                1147.604591963704                                 1146.144809876947                                 1144.4696884169089
35                                                1160.408619477958                                 1171.9293075382898                                1176.7504888326084                                1174.1573858025226                                1170.5600798853725                                1168.9397924293107                                1167.1515294663182
40                                                1188.6319324723463                                1196.1545744037821                                1197.5543824369743                                1193.964893951787                                 1189.929788509025                                 1188.1978368957261                                1186.3209450430163
45                                                1209.7211268323913                                1215.3797613297702                                1214.969758733404                                 1210.7878645317764                                1206.4639842698994                                1204.6505667635088                                1202.7034633615713
50                                                1227.312104158852                                 1231.876639221638                                 1230.3047692636414                                1225.7063946786016                                1221.16600618533                                  1219.2882364107695                                1217.2832201493716
55                                                1243.2172280329582                                1246.9242729252715                                1244.4094856411211                                1239.4588114290086                                1234.7289215007736                                1232.7933631165329                                1230.7355208613371
60                                                1257.3138674242214                                1260.4172426558212                                1257.1944147728655                                1251.9602902762922                                1247.0698702167442                                1245.083564329817                                 1242.97835297128
65                                                1269.4024235214629                                1272.025310311289                                 1268.2259658982516                                1262.7549480386242                                1257.7275603803146                                1255.697327642013                                 1253.5507787023666
70                                                1279.5573523844778                                1281.8183646169232                                1277.5691510703518                                1271.9060705234901                                1266.7644041433114                                1264.696812307658                                 1262.5147336713103
75                                                1289.7122812474927                                1291.6114189225564                                1286.912336242452                                 1281.057193008356                                 1275.8012479063086                                1273.696296973303                                 1271.478688640254
80                                                1299.867210110508                                 1301.4044732281905                                1296.2555214145527                                1290.208315493222                                 1284.8380916693059                                1282.6957816389486                                1280.4426436091976
85                                                1308.6298661725205                                1309.8625782864087                                1304.331151491493                                 1298.1184788391192                                1292.6488164650195                                1290.473788033812                                 1288.189422463152
90                                                1316.313720661983                                 1317.2862988861011                                1311.4246174200239                                1305.0670858940189                                1299.5094838660289                                1297.3053328742985                                1294.9930732850303
95                                                1323.9975751514453                                1324.710019485793                                 1318.5180833485542                                1312.0156929489185                                1306.3701512670386                                1304.136877714785                                 1301.796724106909
100                                               1331.681429640908                                 1332.133740085485                                 1325.611549277085                                 1318.9643000038177                                1313.230818668048                                 1310.968422555271                                 1308.600374928788
105                                               1338.0283997459042                                1338.2668164708798                                1331.4715243720507                                1324.7036280109755                                1318.896480668761                                 1316.6095887811343                                1314.2180186358964
110                                               1343.5469493415235                                1343.6001257635817                                1336.5671483260153                                1329.6936080742507                                1323.8216396058401                                1321.5131190006723                                1319.1007352022907
115                                               1349.0654989371433                                1348.933435056284                                 1341.6627722799803                                1334.6835881375264                                1328.7467985429194                                1326.4166492202098                                1323.9834517686845
120                                               1354.5840485327626                                1354.2667443489859                                1346.7583962339454                                1339.6735682008011                                1333.671957479999                                 1331.3201794397478                                1328.8661683350783
125                                               1359.3535700800671                                1358.8805367540099                                1351.1714531969037                                1343.99606694581                                  1337.9382443877762                                1335.5675798432162                                1333.0953244002153
130                                               1363.3526586312278                                1362.7542506629125                                1354.8824374762921                                1347.632009782722                                 1341.5268307037632                                1339.1401002322577                                1336.6522431889534
135                                               1366.868520041071                                 1366.1637762286077                                1358.1530712286685                                1350.8373344471443                                1344.690353034589                                 1342.289325744604                                 1339.7875246659642
140                                               1369.9011543095962                                1369.109113451097                                 1360.9833544540338                                1353.6120409390778                                1347.4288113802545                                1345.0152563802562                                1342.501168831246
145                                               1372.450561436804                                 1371.5902623303805                                1363.373287152387                                 1355.9561292585227                                1349.7422057407593                                1347.317892139214                                 1344.7931756847997
150                                               1374.8207237690362                                1373.8946430366022                                1365.5904340168458                                1358.1303957829618                                1351.8881803470595                                1349.4540296648001                                1346.9196361248214
155                                               1376.989870672303                                 1376.001671087141                                 1367.6156325760608                                1360.116162774863                                 1353.8482832123245                                1351.4052776727885                                1348.8622094111988
160                                               1378.835455641336                                 1377.7954768013442                                1369.3410176251296                                1361.8082935872062                                1355.5186484361607                                1353.0681119566493                                1350.5176558493163
165                                               1380.3574786761355                                1379.276060179211                                 1370.7665891640531                                1363.2067882199922                                1356.8992760185688                                1354.442532516383                                 1351.8859754391742
170                                               1381.5559397767015                                1380.443421220742                                 1371.8923471928306                                1364.3116466732195                                1357.9901659595484                                1355.5285393519885                                1352.9671681807722
175                                               1382.7387575797766                                1381.5911804727311                                1372.994032481231                                 1365.39167481892                                  1359.0563687088143                                1356.5900271722571                                1354.0240666735363
180                                               1383.8838795417855                                1382.6983093934446                                1374.0518970029389                                1366.4276212948862                                1360.078901860319                                 1357.6080963430936                                1355.037847349613
185                                               1384.8671722934905                                1383.6464387015171                                1374.9547794747377                                1367.311120531178                                 1360.9509137934892                                1358.4763611657554                                1355.9025526857517
190                                               1385.688635834892                                 1384.435568396948                                 1375.7026798966253                                1368.0421725277947                                1361.6724045083242                                1359.1948216402434                                1356.618182681952
195                                               1386.34827016599                                  1385.065698479737                                 1376.2955982686026                                1368.6207772847365                                1362.243374004825                                 1359.7634777665562                                1357.1847373382152
200                                               1387.0262675471026                                1385.7141697869015                                1376.9068560763562                                1369.2174452601148                                1362.8320689409215                                1360.3497089774296                                1357.768701169698
205                                               1387.7097229533342                                1386.3682815070265                                1377.5240403667226                                1369.819964821183                                 1363.4264398129048                                1360.941527878162                                 1358.3581508739867
210                                               1388.3259942327845                                1386.9565410022033                                1378.0772788506883                                1370.3595969079115                                1363.958660182166                                 1361.4714576406354                                1358.8859703972707
215                                               1388.8750813854522                                1387.4789482724318                                1378.566571528253                                 1370.836341520299                                 1364.428730048704                                 1361.9394982648491                                1359.3521597395516
220                                               1389.356984411338                                 1387.9355033177121                                1378.9919183994166                                1371.250198658347                                 1364.8366494125198                                1362.3456497508037                                1359.7567189008282
225                                               1389.8462840328448                                1388.4016494347397                                1379.429569878021                                 1371.6768252939892                                1365.2572293682215                                1362.7643452660386                                1360.1736673436171
230                                               1390.3376389213413                                1388.8719835189622                                1379.8740650553282                                1372.1108030196606                                1365.6851120883612                                1363.1902540495203                                1360.5977039356449
235                                               1390.8009828344912                                1389.316091592505                                 1380.2946645747465                                1372.5216317171112                                1366.090138459063                                 1363.5933693437237                                1360.9989886991566
240                                               1391.2363157722943                                1389.7339736553677                                1380.6913684362776                                1372.909311386341                                 1366.4723084803259                                1363.9736911486498                                1361.37752163415
245                                               1391.6436377347504                                1390.1256297075506                                1381.0641766399199                                1373.273842027349                                 1366.8316221521513                                1364.3312194642976                                1361.7333027406266
250                                               1392.0455661621259                                1390.5128578275157                                1381.4334878345749                                1373.6351304250825                                1367.1878125347876                                1364.6856607228651                                1362.086031042043
