% Model:              batchmodel_BILLETTA_r_0.0131664_COIL_kr_1.6756_COIL_kw_3.7744_FUNZ_freq_6066_FUNZ_I_eff_127.5152.mph
% Version:            COMSOL 5.6.0.401
% Date:               Jan 27 2022, 12:26
% Table:              Tabella delle sonde 1 - 
% Tempo (s)                                       Temperatura (degC), Punto: (0, 0.5)               Temperatura (degC), Punto: (0.5*BILLETTA_r, 0.5)  Temperatura (degC), Punto: (BILLETTA_r-10*FUNZ_depth_billetta, 0.5)Temperatura (degC), Punto: (BILLETTA_r-5*FUNZ_depth_billetta, 0.5)Temperatura (degC), Punto: (BILLETTA_r-2*FUNZ_depth_billetta, 0.5)Temperatura (degC), Punto: (BILLETTA_r-FUNZ_depth_billetta, 0.5)Temperatura (degC), Punto: (BILLETTA_r-0.01[mm], 0.5)
0                                                 20                                                19.999999999999943                                20.00000000380868                                 20.02286042288449                                 20.520900213528932                                20.869130279077638                                21.17962687556252
5                                                 529.8560834770968                                 718.1129268360522                                 1174.2129274733302                                1233.4521936164933                                1245.4623510196702                                1245.961987899655                                 1244.8617975862344
10                                                1035.520898559712                                 1209.4356424491884                                1300.454592236324                                 1310.6515017249976                                1310.7215340700022                                1309.5256783845816                                1307.735659838298
12.747219731242732                                1246.4471763913743                                1329.7616837561209                                1389.6221653442267                                1395.1838442465155                                1393.761020432752                                 1392.2078766185123                                1390.1017176867344
