% Model:              batchmodel_BILLETTA_r_0.0335556_COIL_kr_1.4848_COIL_kw_3.7744_FUNZ_freq_6066_FUNZ_I_eff_85.0125.mph
% Version:            COMSOL 5.6.0.280
% Date:               Jan 27 2022, 16:23
% Table:              Tabella delle sonde 1 - 
% Tempo (s)                                       Temperatura (degC), Punto: (0, 0.5)               Temperatura (degC), Punto: (0.5*BILLETTA_r, 0.5)  Temperatura (degC), Punto: (BILLETTA_r-10*FUNZ_depth_billetta, 0.5)Temperatura (degC), Punto: (BILLETTA_r-5*FUNZ_depth_billetta, 0.5)Temperatura (degC), Punto: (BILLETTA_r-2*FUNZ_depth_billetta, 0.5)Temperatura (degC), Punto: (BILLETTA_r-FUNZ_depth_billetta, 0.5)Temperatura (degC), Punto: (BILLETTA_r-0.01[mm], 0.5)
0                                                 20                                                19.999999999999886                                20.000000000069804                                20.00037091494454                                 20.125827760534776                                20.35331818000651                                 20.5333098100881
5                                                 28.727782212714203                                86.04451528143659                                 589.7195478849246                                 705.576475118164                                  762.390084834927                                  774.0606423418961                                 778.2278283803345
10                                                104.06613391496131                                245.49637717893904                                989.6004663798063                                 1104.109961445933                                 1132.7940477910875                                1135.8483561978278                                1135.8383156570453
15                                                218.66677617874512                                385.074575813946                                  1090.5970075348005                                1145.2484514631906                                1157.67668862577                                  1158.487585643687                                 1157.6943234508558
20                                                327.5442567123704                                 496.38900566665916                                1120.2372825293928                                1149.8647107392426                                1155.68346018173                                  1155.5812322869833                                1154.4943985267792
25                                                421.7606663183184                                 584.8467096840751                                 1141.7912741293262                                1161.1964074540442                                1164.2447862978997                                1163.7390982904944                                1162.5009402276523
30                                                503.5264174034594                                 658.7235241606323                                 1160.5339568218092                                1173.9550922719664                                1175.3404736842263                                1174.5793515318423                                1173.2321401170389
35                                                573.7591180336002                                 720.3860050484569                                 1177.987807820125                                 1187.886572552541                                 1188.2601785708093                                1187.330441406351                                 1185.8979640729513
40                                                632.6464507875556                                 777.0158861083293                                 1195.8082026514812                                1203.5403652378045                                1203.254574415324                                 1202.2015141980992                                1200.693787434453
45                                                680.6788087667261                                 837.178001100286                                  1215.2419263625625                                1221.582051124572                                 1220.8387012086105                                1219.6878603174137                                1218.1104743090332
50                                                717.0976442481997                                 898.9525782869729                                 1237.25881597009                                  1242.6687729793894                                1241.573887393738                                 1240.3338971870658                                1238.6830503420929
55                                                745.12545411382                                   958.0942627307385                                 1262.2857372232602                                1267.0058065428493                                1265.59584301924                                  1264.263406831927                                 1262.529131512314
60                                                776.3894712122523                                 1013.6776581330447                                1290.054175203084                                 1294.1524884498886                                1292.416758958053                                 1290.9824153158634                                1289.1534562656625
65                                                827.6573318321701                                 1066.3234818211595                                1319.851219215498                                 1323.2881812562841                                1321.1905088044946                                1319.6425383426135                                1317.7084250698172
70                                                901.2258431601521                                 1116.8053743407418                                1350.3433536954763                                1352.987231368159                                 1350.4813982446067                                1348.810259145378                                 1346.7643624325642
71.32090423954014                                 923.7971504716257                                 1129.8349366700481                                1358.4046600270422                                1360.8104433089743                                1358.1887424662405                                1356.4837611926519                                1354.4075986458897
