% Model:              batchmodel_BILLETTA_r_0.0131664_COIL_kr_1.4848_COIL_kw_3.7744_FUNZ_freq_4639.7_FUNZ_I_eff_127.5152.mph
% Version:            COMSOL 5.6.0.401
% Date:               Jan 27 2022, 12:01
% Table:              Tabella delle sonde 1 - 
% Tempo (s)                                       Temperatura (degC), Punto: (0, 0.5)               Temperatura (degC), Punto: (0.5*BILLETTA_r, 0.5)  Temperatura (degC), Punto: (BILLETTA_r-10*FUNZ_depth_billetta, 0.5)Temperatura (degC), Punto: (BILLETTA_r-5*FUNZ_depth_billetta, 0.5)Temperatura (degC), Punto: (BILLETTA_r-2*FUNZ_depth_billetta, 0.5)Temperatura (degC), Punto: (BILLETTA_r-FUNZ_depth_billetta, 0.5)Temperatura (degC), Punto: (BILLETTA_r-0.01[mm], 0.5)
0                                                 19.999999999999943                                20.000000000000057                                20.000000002087518                                20.016645683649188                                20.39397762010634                                 20.655317540138697                                20.89861592668717
5                                                 490.6242193791138                                 664.7822932201908                                 1086.699903642323                                 1191.4628984697438                                1213.7895844204709                                1215.540632553259                                 1214.7235300888656
10                                                959.2774081584975                                 1174.9483792490346                                1252.9152978903026                                1263.1709891423502                                1262.8959005627844                                1261.5702956626237                                1259.6491406690016
15                                                1298.125164783863                                 1345.3785094893137                                1377.0730188033504                                1380.9025234296355                                1378.7135679242924                                1376.8961786682762                                1374.5002279380046
16.940528963367736                                1359.915082889882                                 1389.5619599801844                                1397.659025084909                                 1398.3479525637413                                1396.0393117961926                                1394.2579972320818                                1391.8257525533986
