% Model:              batchmodel_BILLETTA_r_0.0257427_COIL_kr_2.7711_COIL_kw_3.7744_FUNZ_freq_6066_FUNZ_I_eff_61.5962.mph
% Version:            COMSOL 5.6.0.280
% Date:               Jan 27 2022, 15:27
% Table:              Tabella delle sonde 1 - 
% Tempo (s)                                       Temperatura (degC), Punto: (0, 0.5)               Temperatura (degC), Punto: (0.5*BILLETTA_r, 0.5)  Temperatura (degC), Punto: (BILLETTA_r-10*FUNZ_depth_billetta, 0.5)Temperatura (degC), Punto: (BILLETTA_r-5*FUNZ_depth_billetta, 0.5)Temperatura (degC), Punto: (BILLETTA_r-2*FUNZ_depth_billetta, 0.5)Temperatura (degC), Punto: (BILLETTA_r-FUNZ_depth_billetta, 0.5)Temperatura (degC), Punto: (BILLETTA_r-0.01[mm], 0.5)
0                                                 20                                                19.999999999999943                                20.000000000023363                                20.00010691099834                                 20.141565413555725                                20.33265613700388                                 20.529959091146793
5                                                 45.522852130008346                                107.79653655705476                                366.137879416866                                  428.0532416485788                                 464.6275979662628                                 472.3450294490923                                 475.27920847629434
10                                                164.92588604660796                                280.3211178543895                                 667.2006390302812                                 759.7341989643709                                 810.6530967383559                                 820.663744085031                                  824.0407633712249
15                                                314.91248041579615                                447.3070885485687                                 912.400533848927                                  1020.9226249614281                                1061.3784395647244                                1067.2530369141632                                1068.4657066330906
20                                                447.5497932254058                                 580.1756080216184                                 1025.461640669566                                 1077.4936097162654                                1090.8302505611387                                1091.9991459846005                                1091.4848558538988
25                                                555.519134369393                                  677.8845507863576                                 1065.0587913414993                                1094.3277416832893                                1100.9358914140344                                1101.1051226485583                                1100.2342704715484
30                                                639.7183376832655                                 749.8242710587677                                 1088.5889504678125                                1107.1168009910575                                1110.5051590204343                                1110.1808180240278                                1109.1239727279303
35                                                700.4643223467529                                 813.0671241994856                                 1104.516750455086                                 1117.282293826303                                 1118.9301027341976                                1118.3318532575163                                1117.1650228898761
40                                                746.1370022379966                                 876.5700165942297                                 1118.7567249324934                                1127.2565341126337                                1127.5988540271792                                1126.7901391382761                                1125.53391905245
45                                                792.9062009373553                                 935.6007203610999                                 1132.1414770127203                                1137.798225510695                                 1137.2408029366538                                1136.2789888915122                                1134.9503396429159
50                                                857.3503257017513                                 987.7839158638252                                 1144.8721724296943                                1148.443302374647                                 1147.2101921196154                                1146.1278267970006                                1144.7368268539617
55                                                922.2469575589088                                 1032.593909645294                                 1158.881154405637                                 1160.9737261682276                                1159.2303057547579                                1158.0475458761134                                1156.596038247093
60                                                982.7017900298098                                 1073.3616235207564                                1173.9902116846947                                1174.863465301778                                 1172.6774097430543                                1171.4011767820498                                1169.8879180993486
65                                                1035.4157039123302                                1109.2530676334923                                1190.6291570225994                                1190.5584384923532                                1187.9997044365186                                1186.6362500176351                                1185.058595350738
70                                                1078.748369814146                                 1140.4615719688504                                1208.7244497735755                                1207.9096782882084                                1205.0340125287785                                1203.5895715053566                                1201.9468693186936
75                                                1119.305473855513                                 1170.330642963222                                 1227.0771705088323                                1225.572909337799                                 1222.3961145065791                                1220.872738416836                                 1219.1652680304041
80                                                1154.7463563699412                                1197.8078333434796                                1245.6141199336535                                1243.5132719383469                                1240.063321105045                                 1238.465137804294                                 1236.6942041823763
85                                                1186.1576276110345                                1223.401143395969                                 1264.2961705821863                                1261.6719074217349                                1257.9708325872039                                1256.301093234962                                 1254.4677241866084
90                                                1214.3079284364971                                1247.3215514765825                                1282.8030143069168                                1279.7117882640582                                1275.7761658525815                                1274.0372126230604                                1272.1420516721287
95                                                1240.3695574287458                                1269.8908328657462                                1300.6461306453898                                1297.11889431592                                  1292.9569801367443                                1291.1497688581462                                1289.1928734329463
100                                               1263.5339034088174                                1290.887038059495                                 1318.1624841841171                                1314.247778969475                                 1309.8735681054723                                1308.00001085972                                  1305.981842657081
105                                               1284.5965507170567                                1310.4541404326728                                1334.8940175526895                                1330.631761000629                                 1326.060137182572                                 1324.1233374160047                                1322.045904051527
110                                               1304.6664430824844                                1328.7928206209872                                1350.2022568361613                                1345.620345935487                                 1340.8674315566818                                1338.8721533266298                                1336.7396172307335
115                                               1322.9597686978482                                1345.7612356727732                                1364.5384813736546                                1359.6733093567482                                1354.7543513122291                                1352.7041849406296                                1350.5191855004523
120                                               1339.405590660825                                 1360.9437981640176                                1377.3535609504588                                1372.2459058309914                                1367.1814589476794                                1365.0822856466048                                1362.849853832282
125                                               1353.913647409563                                 1373.8117061771181                                1387.9487710773942                                1382.6449901542146                                1377.462363179864                                 1375.3229791367335                                1373.0511890174034
130                                               1366.5494359315812                                1384.748677120535                                 1396.8311310017266                                1391.373533046667                                 1386.095133844764                                 1383.9222200375984                                1381.6169375019372
132.74931049019455                                1372.6995938681653                                1389.9397205593682                                1400.985349665782                                 1395.4612015430703                                1390.139688930622                                 1387.9511851766165                                1385.6299859163837
