% Model:              batchmodel_BILLETTA_r_0.0542379_COIL_kr_2.4069_COIL_kw_5.8583_FUNZ_freq_6066_FUNZ_I_eff_61.5962.mph
% Version:            COMSOL 5.6.0.401
% Date:               Jan 28 2022, 03:43
% Table:              Tabella delle sonde 1 - 
% Tempo (s)                                       Temperatura (degC), Punto: (0, 0.5)               Temperatura (degC), Punto: (0.5*BILLETTA_r, 0.5)  Temperatura (degC), Punto: (BILLETTA_r-10*FUNZ_depth_billetta, 0.5)Temperatura (degC), Punto: (BILLETTA_r-5*FUNZ_depth_billetta, 0.5)Temperatura (degC), Punto: (BILLETTA_r-2*FUNZ_depth_billetta, 0.5)Temperatura (degC), Punto: (BILLETTA_r-FUNZ_depth_billetta, 0.5)Temperatura (degC), Punto: (BILLETTA_r-0.01[mm], 0.5)
0                                                 20                                                20.000000000000057                                20.000000000021714                                20.000101840024                                   20.140812220161195                                20.333399577049136                                20.533701001274096
5                                                 20.06625204730807                                 24.43529706383788                                 299.2755366087647                                 351.9922191621032                                 385.56987508093914                                392.8718347713451                                 395.6328600230555
10                                                22.561249407441892                                54.128465324562455                                537.1314319256969                                 613.5974936465026                                 653.6256709473469                                 661.697797209378                                  664.7102968459438
15                                                34.14046772165233                                 105.24804646101501                                749.6815931861065                                 865.1241733985806                                 922.4913562157589                                 932.7193563646105                                 935.912144008725
20                                                58.19069500976548                                 165.0694531389201                                 925.676103442698                                  1030.6230485755168                                1067.996927870408                                 1073.1882552784882                                1074.1292192616402
25                                                91.51711603722322                                 225.98869345084637                                999.779099508068                                  1066.4948241742222                                1085.2240119272406                                1087.2617179281165                                1087.0600006416262
30                                                131.745556616074                                  284.4342456279488                                 1038.224460384732                                 1084.8529232892997                                1096.7089630451042                                1097.6850068262625                                1097.096967817978
35                                                175.91726526542743                                338.5525416389976                                 1059.1650014661195                                1093.953840963948                                 1102.2509571987866                                1102.6666297115353                                1101.875276441639
40                                                221.20141945860075                                387.9318107756818                                 1070.2465439641833                                1097.7892132582379                                1104.055758424368                                 1104.181396287017                                 1103.2910731941329
45                                                265.7473971623674                                 432.522695766821                                  1079.3862792795849                                1102.5144177828965                                1107.452546019154                                 1107.377029717104                                 1106.4120997178647
50                                                308.10843715231897                                472.8591776261785                                 1087.596539053127                                 1107.2865715223834                                1111.1681383102546                                1110.9283108592085                                1109.9001450543383
55                                                348.14982088142847                                509.0228232834744                                 1094.8738908644827                                1112.0074501822965                                1115.0739114117632                                1114.7023097580313                                1113.6210888054688
60                                                385.4424884384691                                 541.8250645628463                                 1101.3665751125295                                1116.3173354822788                                1118.6938091365869                                1118.2103895294576                                1117.0835401056288
65                                                420.14909866634673                                571.0883565063649                                 1107.0574207804962                                1120.3487008406923                                1122.193977259391                                 1121.6222484543919                                1120.4578967889906
70                                                452.680208230904                                  598.9095303665617                                 1112.9813893387973                                1124.5523793688722                                1125.85642781776                                  1125.195999458108                                 1123.993802986447
75                                                482.89998122456427                                624.5911725415914                                 1118.7945046906725                                1128.7790418655413                                1129.5880524539448                                1128.8464886638594                                1127.6089215090428
80                                                510.8084176473277                                 648.1332830314542                                 1124.4967668361228                                1133.0286883307012                                1133.3888511679475                                1132.5737160716458                                1131.303252356778
85                                                536.5611613065935                                 669.6796753642022                                 1130.0570479571043                                1137.2893406532294                                1137.2499390298676                                1136.3689451694463                                1135.0680860493635
90                                                561.0006757097592                                 690.00877851352                                   1135.306860458736                                 1141.496164120616                                 1141.123223993316                                 1140.1848872621135                                1138.8562802080946
95                                                583.5701831021975                                 708.6061346633722                                 1140.3575565170313                                1145.6920075035628                                1145.0404897276962                                1144.052795090297                                 1142.698990874192
100                                               604.2696834839085                                 725.4717438137596                                 1145.2091361319904                                1149.8768708020707                                1149.0017362330095                                1147.9726686539962                                1146.5962180476554
105                                               623.6040776286875                                 742.1231721545284                                 1150.138891119485                                 1154.2062827138066                                1153.1260890682038                                1152.0579923055484                                1150.659265985761
110                                               641.6029970131293                                 758.6494821893815                                 1155.1630951047068                                1158.689370863849                                 1157.4205394410474                                1156.3154261831519                                1154.8946668818935
115                                               658.0869443109779                                 774.511163805378                                  1160.1831680455462                                1163.2708432288214                                1161.842737011771                                 1160.7046254529828                                1159.2628509480483
120                                               673.1147448841774                                 790.018284865455                                  1165.251919529327                                 1167.9814999575929                                1166.4171011355625                                1165.2490454033932                                1163.786890545242
125                                               686.9807628806436                                 806.7224356914124                                 1170.6336105594683                                1172.975466061513                                 1171.2658271112673                                1170.0660571094022                                1168.582240566841
130                                               699.5010034739335                                 823.6537814919155                                 1176.163062537271                                 1178.1564043850058                                1176.3125357229983                                1175.0822967774543                                1173.5767349450093
135                                               710.675466664047                                  840.8123222669636                                 1181.8402754627355                                1183.524314928071                                 1181.557226970754                                 1180.2977644075509                                1178.7703736797466
140                                               720.9193753371928                                 857.8690370373118                                 1187.763981167675                                 1189.1555640118386                                1187.069001798534                                 1185.780328182827                                 1184.2304287417428
145                                               730.2400502406853                                 874.8181248716304                                 1193.935920381748                                 1195.0514980422004                                1192.849078517194                                 1191.5311846794734                                1189.958086195435
150                                               738.4996493179567                                 891.7688112725081                                 1200.3233169762816                                1201.186765596808                                 1198.8745176006446                                1197.5278036125524                                1195.93101368127
155                                               746.0871316087307                                 908.6122188104208                                 1206.9161157624121                                1207.5484917942154                                1205.1318537815391                                1203.7567765682375                                1202.1360157380368
160                                               754.754631632081                                  924.8578899226578                                 1213.6690213704296                                1214.0786794627256                                1211.5604303908844                                1210.1577029842251                                1208.5136510859984
165                                               763.3936995420898                                 940.8161019331911                                 1220.610688932135                                 1220.8140192532742                                1218.1986205528137                                1216.7687939643138                                1215.101523959674
170                                               772.0043353387576                                 956.4868548420192                                 1227.7411184475272                                1227.7545111658605                                1225.046424267327                                 1223.5900495085048                                1221.8996343590647
175                                               782.9311337904745                                 971.8523725605525                                 1234.9405245863618                                1234.7634771496505                                1231.9619385853634                                1230.4786890157807                                1228.7647877873765
180                                               796.1231594183186                                 986.9130412679284                                 1242.2115096419002                                1241.8438864861873                                1238.9482462975056                                1237.4378143433983                                1235.7000950936017
185                                               810.8550375357551                                 1001.674360560436                                 1249.5911330017802                                1249.0380248615184                                1246.0492495776298                                1244.5115991946768                                1242.7498580328356
190                                               827.3328420308518                                 1016.190932528603                                 1257.0435951687064                                1256.307772026802                                 1253.2261520484185                                1251.6611282391814                                1249.8750884488823
195                                               846.3959831543872                                 1030.6851703802931                                1264.4230724030235                                1263.4978510183255                                1260.320922640924                                 1258.7278858707537                                1256.9169740910684
200                                               867.5067095288458                                 1045.0145895451847                                1271.8229837650797                                1270.7077369152348                                1267.4348007966923                                1265.8134219400067                                1263.9772548493784
205                                               890.6650211542275                                 1059.179190023276                                 1279.2433292548744                                1277.9374297175314                                1274.5677865157231                                1272.9177364469401                                1271.0559307238127
210                                               913.1727005088479                                 1073.213433401559                                 1286.5957280448274                                1285.1007915830737                                1281.635055799346                                 1279.9564512647248                                1278.0690651003474
215                                               935.1902470259266                                 1087.1152697840798                                1293.8854373362647                                1292.2029462925548                                1288.641654276239                                 1286.9345855000215                                1285.0216508229141
220                                               957.4938929020938                                 1100.8747851468006                                1301.1378828198071                                1299.268674267079                                 1295.6119843966453                                1293.876413333176                                 1291.937835055986
225                                               980.083638137348                                  1114.4919794897214                                1308.3530644954544                                1306.2979755066458                                1302.546046160563                                 1300.781934764188                                 1298.8176177995624
230                                               1002.9594827316902                                1127.9668528128414                                1315.5309823632065                                1313.2908500112553                                1309.4438395679945                                1307.6511497930578                                1305.6609990536435
235                                               1021.8585222163207                                1140.741942739377                                 1322.4480194507587                                1320.0321461959984                                1316.0940355526031                                1314.2737846955893                                1312.2586276730658
240                                               1039.1893542555645                                1153.2873502371076                                1329.2756374965925                                1326.6873299118238                                1322.6595820757807                                1320.8121628567205                                1318.7723344018132
245                                               1056.520186294808                                 1165.8327577348377                                1336.1032555424254                                1333.3425136276487                                1329.2251285989582                                1327.3505410178518                                1325.286041130561
250                                               1073.8510183340518                                1178.3781652325683                                1342.9308735882591                                1339.9976973434746                                1335.7906751221353                                1333.888919178984                                 1331.799747859308
