% Model:              batchmodel_BILLETTA_r_0.0445341_COIL_kr_1.9397_COIL_kw_4.5299_FUNZ_freq_8940.8_FUNZ_I_eff_85.0125.mph
% Version:            COMSOL 5.6.0.401
% Date:               Jan 27 2022, 16:33
% Table:              Tabella delle sonde 1 - 
% Tempo (s)                                       Temperatura (degC), Punto: (0, 0.5)               Temperatura (degC), Punto: (0.5*BILLETTA_r, 0.5)  Temperatura (degC), Punto: (BILLETTA_r-10*FUNZ_depth_billetta, 0.5)Temperatura (degC), Punto: (BILLETTA_r-5*FUNZ_depth_billetta, 0.5)Temperatura (degC), Punto: (BILLETTA_r-2*FUNZ_depth_billetta, 0.5)Temperatura (degC), Punto: (BILLETTA_r-FUNZ_depth_billetta, 0.5)Temperatura (degC), Punto: (BILLETTA_r-0.01[mm], 0.5)
0                                                 20                                                20                                                20.00000000062579                                 20.002336620632718                                20.388769131383754                                20.76703434984597                                 21.104504953793594
5                                                 21.060112217565177                                47.999129121440546                                786.8466837841917                                 966.7610362641873                                 1042.0192470369975                                1054.1350982293084                                1057.7576897140484
10                                                41.82649071516437                                 146.73398552925323                                1073.8957433852215                                1143.722486388709                                 1160.7794397619336                                1162.4417276782897                                1162.1280426434923
15                                                96.011018060004                                   250.1605065972392                                 1122.3879209881866                                1157.0188221315589                                1164.6871056457085                                1165.0023055862648                                1164.234521095782
20                                                166.1968302048232                                 338.4174949969232                                 1142.7031831504978                                1165.4392658327947                                1169.9221964956137                                1169.7874433052411                                1168.8630513454536
25                                                236.6455485531274                                 414.9005172496204                                 1161.1004544954235                                1177.6096587848906                                1180.3691183806577                                1179.9746889985868                                1178.9454759155697
30                                                302.8883015319782                                 480.9545968529345                                 1178.6374142063378                                1191.519307049855                                 1193.2408796262116                                1192.678361003842                                 1191.5696504084972
35                                                364.6593736151639                                 540.1823801345975                                 1197.0125394394477                                1207.563274520583                                 1208.5898221801544                                1207.904508973128                                 1206.727619967363
40                                                421.1349134201499                                 592.6560020845989                                 1216.4677181327597                                1225.5092703913901                                1226.058888143289                                 1225.278805413001                                 1224.0400315414663
45                                                472.1651900448003                                 638.7946932775749                                 1237.3302345178872                                1245.4485432004544                                1245.6739625918963                                1244.8174377764176                                1243.5194617550505
50                                                518.4680212421616                                 680.4973417199454                                 1260.6894278707023                                1268.1415959686506                                1268.0941327290648                                1267.1625203122594                                1265.7995139963077
55                                                560.4682760851656                                 718.713800405191                                  1286.4283428073559                                1293.3761015436994                                1293.078928935572                                 1292.0695865513972                                1290.6346526937846
60                                                598.4388800746221                                 755.0854836422069                                 1314.4594745366408                                1320.95222500291                                  1320.396579939032                                 1319.302363665748                                 1317.7872192979753
65                                                632.6125545715716                                 794.8307194587122                                 1344.0018915043056                                1349.9307457941013                                1349.0679946228229                                1347.8775368870101                                1346.2739447612053
70                                                663.1098395524253                                 838.3275926411458                                 1371.5018476803575                                1376.6262988931371                                1375.4017695758694                                1374.1110900792723                                1372.4208365339473
73.81171680634779                                 683.948005419185                                  874.5175609170941                                 1390.0523693256137                                1394.3510451354086                                1392.8085515429607                                1391.4404088394567                                1389.6880278642138
