% Model:              batchmodel_BILLETTA_r_0.0257427_COIL_kr_1.9397_COIL_kw_3.2356_FUNZ_freq_6066_FUNZ_I_eff_162.3068.mph
% Version:            COMSOL 5.6.0.280
% Date:               Jan 27 2022, 13:32
% Table:              Tabella delle sonde 1 - 
% Tempo (s)                                       Temperatura (degC), Punto: (0, 0.5)               Temperatura (degC), Punto: (0.5*BILLETTA_r, 0.5)  Temperatura (degC), Punto: (BILLETTA_r-10*FUNZ_depth_billetta, 0.5)Temperatura (degC), Punto: (BILLETTA_r-5*FUNZ_depth_billetta, 0.5)Temperatura (degC), Punto: (BILLETTA_r-2*FUNZ_depth_billetta, 0.5)Temperatura (degC), Punto: (BILLETTA_r-FUNZ_depth_billetta, 0.5)Temperatura (degC), Punto: (BILLETTA_r-0.01[mm], 0.5)
0                                                 19.999999999999943                                19.999999999999943                                20.000000027542455                                20.068544782997265                                20.763255463480277                                21.201962090304562                                21.589278945358274
5                                                 108.63637236775088                                298.87312873881604                                1289.5042180855598                                1358.9682243280304                                1373.9087820733598                                1374.6329097719345                                1373.3174532994258
6.049128712297458                                 158.87592672568593                                374.2511793694707                                 1333.3399301231457                                1382.6522052420505                                1392.1934411320663                                1392.1431829010266                                1390.5305921081758
