% Model:              batchmodel_BILLETTA_r_0.0257427_COIL_kr_1.4848_COIL_kw_5.8583_FUNZ_freq_2540.9_FUNZ_I_eff_162.3068.mph
% Version:            COMSOL 5.6.0.280
% Date:               Jan 27 2022, 12:22
% Table:              Tabella delle sonde 1 - 
% Tempo (s)                                       Temperatura (degC), Punto: (0, 0.5)               Temperatura (degC), Punto: (0.5*BILLETTA_r, 0.5)  Temperatura (degC), Punto: (BILLETTA_r-10*FUNZ_depth_billetta, 0.5)Temperatura (degC), Punto: (BILLETTA_r-5*FUNZ_depth_billetta, 0.5)Temperatura (degC), Punto: (BILLETTA_r-2*FUNZ_depth_billetta, 0.5)Temperatura (degC), Punto: (BILLETTA_r-FUNZ_depth_billetta, 0.5)Temperatura (degC), Punto: (BILLETTA_r-0.01[mm], 0.5)
0                                                 20                                                20                                                20.00000000560476                                 20.02821760166006                                 20.315565769795626                                20.496107655402966                                20.677663930921767
5                                                 89.21377698673217                                 240.62945539715815                                866.9459943548876                                 1129.0535603100811                                1198.770505343035                                 1206.7346008618547                                1207.491211047593
10                                                313.4900532146295                                 537.1586724218803                                 1247.587544767106                                 1317.5379078009669                                1330.5353527796865                                1330.3259671421742                                1327.9644621404154
15                                                512.8604549795215                                 780.3157164401028                                 1331.9468664823858                                1360.9755957037942                                1363.512321485472                                 1361.7886252530839                                1358.8138379802735
20                                                667.6829706273606                                 1046.9998212804453                                1372.444831770545                                 1387.6652695672328                                1386.8511238301485                                1384.6319531581512                                1381.4106308111918
20.79011794766261                                 688.9784656785447                                 1084.3305188462473                                1377.9734266527998                                1391.7357655893306                                1390.5850703979268                                1388.314798997747                                 1385.0631906692288
