% Model:              batchmodel_BILLETTA_r_0.0335556_COIL_kr_1.4848_COIL_kw_3.7744_FUNZ_freq_6066_FUNZ_I_eff_162.3068.mph
% Version:            COMSOL 5.6.0.280
% Date:               Jan 27 2022, 16:25
% Table:              Tabella delle sonde 1 - 
% Tempo (s)                                       Temperatura (degC), Punto: (0, 0.5)               Temperatura (degC), Punto: (0.5*BILLETTA_r, 0.5)  Temperatura (degC), Punto: (BILLETTA_r-10*FUNZ_depth_billetta, 0.5)Temperatura (degC), Punto: (BILLETTA_r-5*FUNZ_depth_billetta, 0.5)Temperatura (degC), Punto: (BILLETTA_r-2*FUNZ_depth_billetta, 0.5)Temperatura (degC), Punto: (BILLETTA_r-FUNZ_depth_billetta, 0.5)Temperatura (degC), Punto: (BILLETTA_r-0.01[mm], 0.5)
0                                                 20                                                19.999999999999886                                20.000000027318322                                20.06844152196078                                 20.764919182561584                                21.20545610001261                                 21.59699779858579
5                                                 38.39861625757561                                 159.42351295990056                                1277.2415231265718                                1356.379711668475                                 1374.1245194603962                                1375.2561754272324                                1374.0762675626984
6.034449766668635                                 55.11332985823452                                 209.24401139239825                                1323.092201893894                                 1380.2252276750978                                1391.9313399252546                                1392.19388503975                                  1390.686349180004
