% Model:              batchmodel_BILLETTA_r_0.0131664_COIL_kr_2.7711_COIL_kw_5.3284_FUNZ_freq_2540.9_FUNZ_I_eff_85.0125.mph
% Version:            COMSOL 5.6.0.401
% Date:               Jan 27 2022, 13:48
% Table:              Tabella delle sonde 1 - 
% Tempo (s)                                       Temperatura (degC), Punto: (0, 0.5)               Temperatura (degC), Punto: (0.5*BILLETTA_r, 0.5)  Temperatura (degC), Punto: (BILLETTA_r-10*FUNZ_depth_billetta, 0.5)Temperatura (degC), Punto: (BILLETTA_r-5*FUNZ_depth_billetta, 0.5)Temperatura (degC), Punto: (BILLETTA_r-2*FUNZ_depth_billetta, 0.5)Temperatura (degC), Punto: (BILLETTA_r-FUNZ_depth_billetta, 0.5)Temperatura (degC), Punto: (BILLETTA_r-0.01[mm], 0.5)
0                                                 20                                                20                                                20.00000000004661                                 20.000198782240773                                20.108247292068768                                20.212481216777007                                20.32403953261479
5                                                 241.7501138495652                                 313.8780030015554                                 395.3895045010404                                 479.2518450877285                                 525.8615984882185                                 535.0146405986969                                 538.3357129854559
10                                                554.2271317306601                                 646.5992991088126                                 759.7671069905545                                 891.1783474844054                                 955.2466699615073                                 965.87188621496                                   968.6806405136323
15                                                753.5912436149641                                 922.1081234493744                                 1063.0237138684452                                1116.0175510898366                                1125.490288753278                                 1125.349916808383                                 1123.7276738122605
20                                                1052.7624305649242                                1114.5690540774203                                1135.2733120930789                                1139.8538954356463                                1137.6235237587493                                1135.9267087210628                                1133.7701559746843
25                                                1155.6218847912273                                1165.011080112282                                 1168.4109864076872                                1166.41041901574                                  1162.2041668141583                                1160.1509128426428                                1157.7911719813478
30                                                1181.493633804835                                 1186.458836094187                                 1186.7611947410892                                1182.9874024180904                                1178.0736762378178                                1175.8632457017538                                1173.394070461417
35                                                1197.4579892030993                                1200.715431559131                                 1199.780051204989                                 1195.2129876210347                                1189.934787201414                                 1187.6308972382867                                1185.0873783254006
40                                                1209.6551505143025                                1212.0263540998062                                1210.4122849708083                                1205.3778177382283                                1199.8600659131375                                1197.4871206077587                                1194.8837744886441
45                                                1219.003198429135                                 1220.8323360972145                                1218.787900104282                                 1213.4455488045633                                1207.7635387701775                                1205.3418706513758                                1202.6947164144558
50                                                1227.7684770417436                                1229.1259473148666                                1226.7019372368827                                1221.084330657392                                 1215.2534631918816                                1212.7872311582291                                1210.0995454133404
55                                                1235.7676068697756                                1236.7229682192765                                1233.9715910839373                                1228.11334402567                                  1222.1502897712512                                1219.6440014679179                                1216.9195930399292
60                                                1242.602984249408                                 1243.2618934914958                                1240.262449896191                                 1234.2161409968994                                1228.1462220595222                                1225.606724437399                                 1222.8513787942957
65                                                1249.4383616290402                                1249.8008187637147                                1246.5533087084445                                1240.3189379681285                                1234.1421543477932                                1231.56944740688                                  1228.7831645486626
70                                                1254.192951281258                                 1254.3766260370912                                1250.974998989996                                 1244.6194572493378                                1238.3708934385613                                1235.7751522502294                                1232.9670568243937
75                                                1258.8693594217293                                1258.878673007644                                 1255.3264589354526                                1248.8522594864007                                1242.5332337160767                                1239.9148405886476                                1237.0852754359007
80                                                1263.5457675622006                                1263.3807199781963                                1259.6779188809078                                1253.0850617234646                                1246.695573993593                                 1244.0545289270658                                1241.2034940474077
85                                                1268.2221757026718                                1267.8827669487487                                1264.0293788263643                                1257.3178639605285                                1250.8579142711087                                1248.194217265484                                 1245.3217126589147
90                                                1272.7346697106846                                1272.22858649698                                  1268.2309460874048                                1261.4054575398009                                1254.8776131976065                                1252.192035755078                                 1249.2987649970578
95                                                1275.727931144962                                 1275.1264174835023                                1271.0432380900356                                1264.1471896024586                                1257.5752456031837                                1254.874938365649                                 1251.9674225214558
100                                               1278.7211925792394                                1278.0242484700248                                1273.8555300926664                                1266.8889216651155                                1260.2728780087605                                1257.5578409762206                                1254.6360800458542
105                                               1281.7144540135164                                1280.9220794565472                                1276.6678220952972                                1269.6306537277728                                1262.9705104143382                                1260.2407435867926                                1257.3047375702527
110                                               1284.7077154477938                                1283.8199104430705                                1279.480114097928                                 1272.3723857904306                                1265.6681428199154                                1262.9236461973642                                1259.973395094651
115                                               1287.439647520972                                 1286.465719479933                                 1282.048476257754                                 1274.8766048296416                                1268.1321003165517                                1265.3741139441113                                1262.41079289577
120                                               1289.3015321246098                                1288.2724683413594                                1283.8047194058286                                1276.5900684628682                                1269.8180806951032                                1267.0507330721935                                1264.0782544899516
125                                               1291.1634167282473                                1290.079217202786                                 1285.5609625539028                                1278.3035320960948                                1271.5040610736546                                1268.7273522002752                                1265.7457160841336
130                                               1293.0253013318852                                1291.8859660642124                                1287.3172057019774                                1280.016995729321                                 1273.1900414522065                                1270.4039713283569                                1267.4131776783147
135                                               1294.8871859355231                                1293.6927149256394                                1289.0734488500511                                1281.7304593625481                                1274.876021830758                                 1272.080590456439                                 1269.0806392724967
140                                               1296.5901167922075                                1295.3451580999335                                1290.6796263404422                                1283.2974274942062                                1276.4177811904024                                1273.6137582854071                                1270.605397054254
145                                               1297.9022771807254                                1296.6182575547045                                1291.9168837617403                                1284.5042523965958                                1277.604988888585                                 1274.7942667251637                                1271.7793330613817
150                                               1299.0477424576789                                1297.7295363275189                                1292.9967670284236                                1285.557447174212                                 1278.6409517164989                                1275.8243375013349                                1272.803615295706
155                                               1300.0265126230674                                1298.6789944183765                                1293.9192761404925                                1286.457011827054                                 1279.525669674144                                 1276.7039706139203                                1273.678243757227
160                                               1300.8385876768916                                1299.466631827277                                 1294.6844110979468                                1287.202946355123                                 1280.2591427615198                                1277.4331660629205                                1274.4032184459447
165                                               1301.5549400306736                                1300.1607935724342                                1295.3582822926533                                1287.859646548442                                 1280.9047872969268                                1278.0750359695026                                1275.041372870276
170                                               1302.2778105500684                                1300.8599355703827                                1296.0361265011006                                1288.5198791761718                                1281.5539590500284                                1278.720497885471                                 1275.6832232203128
175                                               1302.9065613118478                                1301.467145506207                                 1296.6242000784214                                1289.0923318757546                                1282.1167345359736                                1279.280059673411                                 1276.2396724277633
180                                               1303.441192316012                                 1301.9824233799063                                1297.122503024617                                 1289.5770046471898                                1282.5931137547627                                1279.7537213333221                                1276.7107204926288
185                                               1303.8817035625607                                1302.4057691914804                                1297.5310353396853                                1289.973897490478                                 1282.983096706395                                 1280.1414828652046                                1277.096367414908
190                                               1304.2770667363002                                1302.7852918740136                                1297.8969924067428                                1290.3293037420567                                1283.3323145573459                                1280.4887301177787                                1277.44175034898
195                                               1304.6978290729758                                1303.1902958073147                                1298.2883625711324                                1290.7099122841237                                1283.7065022863399                                1280.8608446718886                                1277.8118926135935
200                                               1305.074549383397                                 1303.5525631725104                                1298.6382234155285                                1291.0500797893865                                1284.0409555141655                                1281.1934700055967                                1278.142790332036
205                                               1305.4072276675643                                1303.8720939696004                                1298.9465749399305                                1291.3498062578456                                1284.3356742408232                                1281.4866061189023                                1278.434443504308
210                                               1305.6958639254772                                1304.1488881985865                                1299.2134171443386                                1291.6090916895005                                1284.590658466313                                 1281.7402530118047                                1278.68685213041
215                                               1305.9643161462295                                1304.4065876714885                                1299.462051266114                                 1291.850804351453                                 1284.828402871275                                 1281.9767555335434                                1278.922201024432
220                                               1306.2469534798215                                1304.679250119681                                 1299.7260444143271                                1292.1078876279594                                1285.0813126617882                                1282.2283030472777                                1279.172449007393
225                                               1306.5099456191938                                1304.9333517722775                                1299.9723557483703                                1292.3479146244072                                1285.3174906838067                                1282.4632108578735                                1279.4061383118378
230                                               1306.753292564345                                 1305.168892629279                                 1300.2009852682445                                1292.5708853407964                                1285.5369369373302                                1282.6814789653313                                1279.6232689377675
235                                               1306.976994315276                                 1305.3858726906847                                1300.4119329739492                                1292.7767997771266                                1285.7396514223597                                1282.8831073696501                                1279.8238408851817
240                                               1307.1864612556578                                1305.5894118338101                                1300.6100665562085                                1292.9703315098673                                1285.9301970145798                                1283.072625008842                                 1280.012350832238
245                                               1307.389487432477                                 1305.7868856103319                                1300.8023982737677                                1293.1582131622113                                1286.1151468647395                                1283.2565561439906                                1280.1952765673836
250                                               1307.5784009945883                                1305.9710341032041                                1300.9820258067693                                1293.3338176656994                                1286.288030876598                                 1283.4284788020245                                1280.3662418615809
