% Model:              batchmodel_BILLETTA_r_0.0445341_COIL_kr_2.4069_COIL_kw_5.3284_FUNZ_freq_6066_FUNZ_I_eff_85.0125.mph
% Version:            COMSOL 5.6.0.401
% Date:               Jan 27 2022, 18:21
% Table:              Tabella delle sonde 1 - 
% Tempo (s)                                       Temperatura (degC), Punto: (0, 0.5)               Temperatura (degC), Punto: (0.5*BILLETTA_r, 0.5)  Temperatura (degC), Punto: (BILLETTA_r-10*FUNZ_depth_billetta, 0.5)Temperatura (degC), Punto: (BILLETTA_r-5*FUNZ_depth_billetta, 0.5)Temperatura (degC), Punto: (BILLETTA_r-2*FUNZ_depth_billetta, 0.5)Temperatura (degC), Punto: (BILLETTA_r-FUNZ_depth_billetta, 0.5)Temperatura (degC), Punto: (BILLETTA_r-0.01[mm], 0.5)
0                                                 20                                                20                                                20.0000000001678                                  20.00098671561892                                 20.260271117571108                                20.519973119456154                                20.770212735585233
5                                                 20.708193686571576                                42.26738485399659                                 580.2145646110342                                 701.1909435738764                                 768.5460424104216                                 781.7992571260155                                 786.4981803636343
10                                                38.71447876053389                                 131.78030846307541                                968.2865062546065                                 1101.320880080646                                 1136.9795771499266                                1140.8656253146928                                1141.0898036383546
15                                                88.83152659897962                                 232.12278468112777                                1068.3842773445726                                1128.3828393395656                                1142.5865534576633                                1143.6968056694327                                1143.0386590525727
20                                                154.98926543060094                                320.54174607864934                                1115.787446532972                                 1154.00265742385                                  1162.1076044158572                                1162.3334922652348                                1161.3635334880946
25                                                223.82245812714513                                396.8538987902492                                 1130.9157823851465                                1156.9437026810351                                1161.9652301131168                                1161.78383383952                                  1160.6949344303675
30                                                289.2910529748407                                 463.7237784129312                                 1145.776120583363                                 1164.8070400656243                                1167.7934243167565                                1167.2743951647217                                1166.0218070516662
35                                                350.10615224469916                                522.3299302999667                                 1159.3447159760203                                1173.9996903799138                                1175.7683897206848                                1175.0641081922854                                1173.7346879303527
40                                                406.0401774447588                                 574.5688157105417                                 1172.764105087154                                 1184.4263745236208                                1185.3389356399744                                1184.495712766145                                 1183.0998424591876
45                                                457.3421252680372                                 621.3129829963162                                 1186.269070601331                                 1195.890175458289                                 1196.1910438624182                                1195.2386224266934                                1193.7811330341788
50                                                503.79036230959207                                662.7396770641445                                 1199.9926774818236                                1208.198453239911                                 1208.0544667461722                                1207.0154910408514                                1205.5026585913852
55                                                546.5158621708821                                 702.0837436084429                                 1215.3404131959605                                1222.4114828135089                                1221.8904696351983                                1220.7711394614248                                1219.201391286445
60                                                585.5072246329377                                 739.3096178237187                                 1232.296621039924                                 1238.5185214060448                                1237.689661476743                                 1236.496380027189                                 1234.868222912176
65                                                620.6873242041303                                 774.1766944097054                                 1250.7553792781414                                1256.4468913212231                                1255.3885093191607                                1254.1290557838915                                1252.4415340418982
70                                                652.1434064347776                                 811.7852281221836                                 1270.3046200984904                                1275.4899860009255                                1274.1927635226048                                1272.8617312676975                                1271.108906031517
75                                                679.8665254347744                                 851.6122545419181                                 1290.9865956656909                                1295.720258706016                                 1294.1838639996913                                1292.7771984250153                                1290.9536417874028
80                                                703.8369139958029                                 892.5022098852486                                 1312.894668108284                                 1317.297805154642                                 1315.5417637455043                                1314.0583977606493                                1312.159810852596
85                                                726.0755300665198                                 932.3195987967175                                 1334.0911968020137                                1337.9649892726716                                1335.93765511212                                  1334.3713255644861                                1332.3964476944343
90                                                745.755717098824                                  971.9379284268333                                 1355.3687580154624                                1358.6452788864144                                1356.3241180840469                                1354.6706872283626                                1352.6170149627724
94.2837083409091                                  760.5257317443064                                 1005.7813583165004                                1373.7161910688324                                1376.4358303840986                                1373.8469822848383                                1372.1157808134762                                1369.9925268830148
