% Model:              batchmodel_BILLETTA_r_0.0257427_COIL_kr_2.4069_COIL_kw_4.5299_FUNZ_freq_6066_FUNZ_I_eff_85.0125.mph
% Version:            COMSOL 5.6.0.280
% Date:               Jan 27 2022, 14:45
% Table:              Tabella delle sonde 1 - 
% Tempo (s)                                       Temperatura (degC), Punto: (0, 0.5)               Temperatura (degC), Punto: (0.5*BILLETTA_r, 0.5)  Temperatura (degC), Punto: (BILLETTA_r-10*FUNZ_depth_billetta, 0.5)Temperatura (degC), Punto: (BILLETTA_r-5*FUNZ_depth_billetta, 0.5)Temperatura (degC), Punto: (BILLETTA_r-2*FUNZ_depth_billetta, 0.5)Temperatura (degC), Punto: (BILLETTA_r-FUNZ_depth_billetta, 0.5)Temperatura (degC), Punto: (BILLETTA_r-0.01[mm], 0.5)
0                                                 19.999999999999943                                19.999999999999943                                20.000000000168598                                20.000968795058952                                20.25995347398606                                 20.51878776091428                                 20.766169975806974
5                                                 61.00175507769393                                 162.39750658613468                                637.5675385486975                                 777.2220858739539                                 856.3420404786656                                 871.0516447504875                                 875.9899842451188
10                                                233.1369551756806                                 398.00974342457073                                1030.2269437008922                                1115.1597604543645                                1135.6120833804362                                1137.5775476910335                                1137.2105260095582
15                                                410.65219475823585                                575.6232846058123                                 1111.4336106045166                                1145.3405222122465                                1152.1402901206015                                1152.1693397391                                   1151.131726079665
20                                                547.024415247625                                  696.6036805936217                                 1142.3996823491975                                1160.535582291789                                 1163.1624874315976                                1162.5932721541803                                1161.3357938677373
25                                                648.3222966970682                                 792.5557651357414                                 1165.9612656168179                                1176.9554708814544                                1177.6213048264576                                1176.749897979077                                 1175.3605495048664
30                                                718.2433069902842                                 891.4658097285604                                 1189.4901783866503                                1196.6850968299736                                1196.2505136393233                                1195.1875344161144                                1193.692381710065
35                                                774.3233458032277                                 982.9989960045699                                 1215.7667274213682                                1221.0811780589188                                1220.0278813436585                                1218.8313869849903                                1217.239817266428
40                                                867.8112781015715                                 1060.6239740571405                                1248.899059885261                                 1253.1468387983637                                1251.641862111845                                 1250.3200434998535                                1248.6192920240396
45                                                976.2951128338999                                 1130.202705899434                                 1287.527589590993                                 1290.749336347128                                 1288.7480942083462                                1287.2793989871825                                1285.4466069338073
50                                                1071.8679493987092                                1193.9157600439094                                1328.9737776632942                                1331.0297497210126                                1328.4549267892598                                1326.8185345790916                                1324.8368150338356
55                                                1152.4769690090543                                1252.4382226818407                                1366.8989171788812                                1367.5839627212936                                1364.418966642685                                 1362.6203968740083                                1360.4973824750505
56.39826488553068                                 1173.8635222685293                                1268.3523260028355                                1377.0095599702463                                1377.2929647415826                                1373.9639426842032                                1372.1214177564707                                1369.9603589516842
