% Model:              batchmodel_BILLETTA_r_0.0542379_COIL_kr_1.6756_COIL_kw_5.3284_FUNZ_freq_8940.8_FUNZ_I_eff_127.5152.mph
% Version:            COMSOL 5.6.0.401
% Date:               Jan 27 2022, 23:53
% Table:              Tabella delle sonde 1 - 
% Tempo (s)                                       Temperatura (degC), Punto: (0, 0.5)               Temperatura (degC), Punto: (0.5*BILLETTA_r, 0.5)  Temperatura (degC), Punto: (BILLETTA_r-10*FUNZ_depth_billetta, 0.5)Temperatura (degC), Punto: (BILLETTA_r-5*FUNZ_depth_billetta, 0.5)Temperatura (degC), Punto: (BILLETTA_r-2*FUNZ_depth_billetta, 0.5)Temperatura (degC), Punto: (BILLETTA_r-FUNZ_depth_billetta, 0.5)Temperatura (degC), Punto: (BILLETTA_r-0.01[mm], 0.5)
0                                                 20.000000000000057                                20                                                20.000000011634597                                20.032323792408533                                20.774335370261724                                21.309718947804583                                21.759787648182794
5                                                 20.099815250362155                                34.77763224122248                                 1162.3556096915231                                1248.6471069337845                                1269.7205659752167                                1271.7633305865543                                1271.377635226102
10                                                26.587254474916108                                108.72641596211315                                1281.589709397912                                 1315.1176668304938                                1322.0644738389797                                1322.0475869203342                                1320.8874460051852
15                                                53.88455788403593                                 195.45498590785132                                1326.9084438693935                                1349.3547971945604                                1353.3982446288237                                1352.9351628283016                                1351.5687592854156
19.242961587521787                                90.56377408692708                                 265.388076977267                                  1368.560323288013                                 1386.76695765132                                  1389.5447438536157                                1388.8475220232126                                1387.3321033910238
