% Model:              batchmodel_BILLETTA_r_0.0542379_COIL_kr_1.9397_COIL_kw_5.8583_FUNZ_freq_7167.5_FUNZ_I_eff_127.5152.mph
% Version:            COMSOL 5.6.0.401
% Date:               Jan 28 2022, 02:02
% Table:              Tabella delle sonde 1 - 
% Tempo (s)                                       Temperatura (degC), Punto: (0, 0.5)               Temperatura (degC), Punto: (0.5*BILLETTA_r, 0.5)  Temperatura (degC), Punto: (BILLETTA_r-10*FUNZ_depth_billetta, 0.5)Temperatura (degC), Punto: (BILLETTA_r-5*FUNZ_depth_billetta, 0.5)Temperatura (degC), Punto: (BILLETTA_r-2*FUNZ_depth_billetta, 0.5)Temperatura (degC), Punto: (BILLETTA_r-FUNZ_depth_billetta, 0.5)Temperatura (degC), Punto: (BILLETTA_r-0.01[mm], 0.5)
0                                                 20                                                20                                                20.00000000486324                                 20.02438218527402                                 20.61784731219035                                 21.05012940028803                                 21.42984705840604
5                                                 20.09505299606934                                 33.51424518152584                                 1100.7090356848148                                1222.043876636791                                 1251.7893201861448                                1254.95596789118                                  1254.8423921997078
10                                                26.386731956324525                                105.38178491265006                                1244.0889920404888                                1286.1920349114148                                1295.1371658825246                                1295.3207189737354                                1294.137048796582
15                                                52.93624538501837                                 191.03262358822076                                1295.188100309695                                 1321.1958263551228                                1325.8644939889818                                1325.4033126366917                                1323.9436283514924
20                                                96.29220751783447                                 272.237771543558                                  1335.082332133702                                 1354.9568556174372                                1357.9381094624382                                1357.186494408344                                 1355.5612182419095
25                                                147.68449526506106                                347.62782943507864                                1375.2474339220794                                1391.1981194802815                                1392.9853356092945                                1392.004737240487                                 1390.2251613950016
25.559304042864767                                153.76513751304378                                355.7072505247352                                 1379.5111725717466                                1395.0308720240205                                1396.6821927199444                                1395.6761580315924                                1393.8797593183904
