% Model:              batchmodel_BILLETTA_r_0.0542379_COIL_kr_2.4069_COIL_kw_3.2356_FUNZ_freq_7167.5_FUNZ_I_eff_61.5962.mph
% Version:            COMSOL 5.6.0.401
% Date:               Jan 28 2022, 02:22
% Table:              Tabella delle sonde 1 - 
% Tempo (s)                                       Temperatura (degC), Punto: (0, 0.5)               Temperatura (degC), Punto: (0.5*BILLETTA_r, 0.5)  Temperatura (degC), Punto: (BILLETTA_r-10*FUNZ_depth_billetta, 0.5)Temperatura (degC), Punto: (BILLETTA_r-5*FUNZ_depth_billetta, 0.5)Temperatura (degC), Punto: (BILLETTA_r-2*FUNZ_depth_billetta, 0.5)Temperatura (degC), Punto: (BILLETTA_r-FUNZ_depth_billetta, 0.5)Temperatura (degC), Punto: (BILLETTA_r-0.01[mm], 0.5)
0                                                 20                                                20                                                20.000000000035868                                20.000171099921943                                20.16875224646111                                 20.39424105902515                                 20.62145306376351
5                                                 20.09940657885278                                 26.00011048994992                                 380.3778722474135                                 445.736203754185                                  483.4007203064117                                 491.2739070141598                                 494.26377457251044
10                                                23.18453755533568                                 60.736316231358785                                637.4854031379633                                 719.5006638543222                                 761.8937870581748                                 770.7390409949252                                 773.9497070075466
15                                                36.55293186542366                                 117.37812517500606                                863.3213696430879                                 981.7199948137167                                 1030.7942419871943                                1038.6480420543066                                1040.747905825443
20                                                63.21782957255965                                 180.41223896932132                                985.4231894907651                                 1063.641334014043                                 1086.11784516131                                  1088.6904502404163                                1088.7309536190855
25                                                101.3104124298855                                 240.57517505916928                                1026.6810675639854                                1079.7482753404392                                1093.8350031083542                                1095.2381473858914                                1094.9492880266175
30                                                143.4288058504343                                 297.398809501738                                  1050.4122779924583                                1088.9306844068997                                1098.7518185805188                                1099.5227993278181                                1098.9880665138844
35                                                188.11529569337063                                348.3183228704838                                 1066.4356076331028                                1096.6479110697096                                1103.8745148907065                                1104.20551440194                                  1103.4615248294012
40                                                231.51913696870855                                394.0241239574342                                 1077.8855142809357                                1102.4808524738346                                1107.9910209867721                                1108.053978240925                                 1107.204725847052
45                                                273.0585106208333                                 435.0961833102217                                 1087.6935942139407                                1108.1685932090404                                1112.423406266636                                 1112.2967969781462                                1111.3809059740533
50                                                312.0433861217714                                 472.1169154693355                                 1096.2302605215627                                1113.4908012990772                                1116.7604774973388                                1116.4816826823376                                1115.5088881800443
55                                                349.6407785993549                                 507.11030265449995                                1104.1572843752992                                1118.6332378231614                                1121.0457464361507                                1120.632599074615                                 1119.6076844949157
60                                                384.07585294817716                                538.0783493329409                                 1110.9730908449997                                1123.4304763695632                                1125.212838143062                                 1124.697487823701                                 1123.6296216873034
65                                                417.4429020832948                                 567.8976286260303                                 1117.551865690014                                 1128.1701359641697                                1129.3762997692415                                1128.7668177068858                                1127.658714212043
70                                                448.5037328181527                                 595.2363405619808                                 1123.6188111444103                                1132.7854636269153                                1133.5319228548428                                1132.8457374621494                                1131.7032574573445
75                                                477.7370949323014                                 620.6094281640801                                 1129.2801782934707                                1137.302269526066                                 1137.681334608968                                 1136.932256320039                                 1135.7600439953853
80                                                505.2274702220968                                 644.1561019982905                                 1134.6907308611653                                1141.7839105731346                                1141.860567718661                                 1141.058323977827                                 1139.8596349757618
85                                                531.1539500831931                                 666.1714719654829                                 1140.1785496000084                                1146.364695911589                                 1146.1460072099303                                1145.291670007115                                 1144.0668164135695
90                                                555.3956641203927                                 686.456365736832                                  1145.522209856581                                 1150.9539790913846                                1150.4861001410663                                1149.5865831102942                                1148.3378636439843
95                                                577.986995526284                                  705.1223196349763                                 1150.765450380154                                 1155.5815007200772                                1154.9061364224372                                1153.9676097255783                                1152.6969909114732
100                                               599.2292029875061                                 723.1465927083318                                 1156.2915013820325                                1160.50784207874                                  1159.6277012126275                                1158.6498208565986                                1157.356358604205
105                                               618.9526364735498                                 739.9788538470183                                 1161.8845516012516                                1165.5862601048666                                1164.5260116237696                                1163.5121019797048                                1162.1964912749258
110                                               637.1572959844153                                 755.6191030510355                                 1167.5446010378118                                1170.8167547984567                                1169.6010676558622                                1168.5544530948973                                1167.2173889236337
115                                               654.1317160753645                                 772.2041259582985                                 1173.4854988901257                                1176.3545412165827                                1174.9893374296898                                1173.9102142552788                                1172.5509930769008
120                                               669.7608385277405                                 788.8818417879571                                 1179.6219690365565                                1182.1377246306938                                1180.6364018866184                                1179.5262137741097                                1178.144689734992
125                                               684.0242045786607                                 805.5007401233228                                 1185.9388483364587                                1188.155299398691                                 1186.5325846503756                                1185.3929970731465                                1183.9891234832535
130                                               696.9195567220241                                 822.6146286223039                                 1192.5680576160703                                1194.5023086761616                                1192.762201355701                                 1191.5933446506529                                1190.1665896999234
135                                               708.4468106044837                                 840.2442007084074                                 1199.5145261924345                                1201.1823038193243                                1199.3284025172416                                1198.1303496597925                                1196.6801634113053
140                                               718.606671002481                                  858.2165617921506                                 1206.737069374854                                 1208.1656130691595                                1206.20486542738                                  1204.9781686510205                                1203.50415261868
145                                               727.8682919411286                                 876.1797087825927                                 1214.2164588886426                                1215.4192989279154                                1213.3550359274714                                1212.0999476696197                                1210.6019157054516
150                                               736.624311357733                                  893.839048091798                                  1221.9366024704782                                1222.9157957977595                                1220.7483216135674                                1219.4648434104342                                1217.942787073563
155                                               744.5249096213903                                 911.4570470220989                                 1229.9118374756717                                1230.6796631680918                                1228.4119786991942                                1227.1003356266938                                1225.5540881486186
160                                               752.1575586522882                                 928.8922755713646                                 1238.0907828903964                                1238.6554131632042                                1236.2891645177583                                1234.9493340237282                                1233.3785950973906
165                                               761.1676868554088                                 945.74860766986                                   1246.3295275306054                                1246.6876318412833                                1244.2206705436888                                1242.8519365036332                                1241.2560317987604
170                                               770.5025645186175                                 962.2794810740367                                 1254.720144426578                                 1254.8757515895004                                1252.3083569033738                                1250.9104469338922                                1249.2889414167676
175                                               780.3688109026997                                 978.4983299366341                                 1263.2466561870601                                1263.2033839151245                                1260.5357445010754                                1259.1083797509236                                1257.4608415986695
180                                               794.0080252158274                                 994.6159194046928                                 1271.6583974159907                                1271.4134137512592                                1268.6442968214128                                1267.1870969669171                                1265.5131447307326
185                                               809.6485535083401                                 1010.5170585242337                                1280.0923660302797                                1279.64636399865                                  1276.7753136393403                                1275.2879538152652                                1273.587178515052
190                                               827.2903957802379                                 1026.2017472952575                                1288.548562029926                                 1287.9022346572956                                1284.9287949548575                                1283.4109502959673                                1281.6829429516283
195                                               847.3985626629263                                 1041.8554862190867                                1296.901154895339                                 1296.0559251043533                                1292.980776944859                                 1291.4326130070085                                1289.6774898083045
200                                               869.8265034816624                                 1057.4198137858166                                1305.189800811354                                 1304.146861493657                                 1300.9703274944486                                1299.3918552745713                                1297.6095669010747
205                                               894.5195430921582                                 1072.872919167929                                 1313.42929471243                                  1312.1897529396715                                1308.9120220551472                                1307.303194887314                                 1305.4936302700362
210                                               918.9479835876795                                 1088.1948751355444                                1321.5535825183792                                1320.119832269092                                 1316.7421144761033                                1315.1032561694574                                1313.2666772282569
215                                               942.6579669096653                                 1103.3821065053016                                1329.5508133372373                                1327.9254794764406                                1324.4491679354787                                1322.7806687668208                                1320.9174043402163
220                                               966.6356876847691                                 1118.4423818439445                                1337.4467381406039                                1335.631943836789                                 1332.058033666011                                 1330.3601394836228                                1328.4703730016254
225                                               990.881145912991                                  1133.3757011514735                                1345.2413569284777                                1343.2392253501375                                1339.5687116677004                                1337.841668319863                                 1335.925583212484
230                                               1015.3943415943305                                1148.1820644278882                                1352.93466970086                                  1350.7473240164863                                1346.9812019405472                                1345.2252552755426                                1343.2830349727928
235                                               1036.0271639520338                                1161.9737381254945                                1359.68103217934                                  1357.3212287416686                                1353.4692280213203                                1351.6876077605239                                1349.7222294814355
240                                               1054.5245919821664                                1175.2766660303473                                1365.9652042110856                                1363.4389009957854                                1359.5057867455207                                1357.7001045036222                                1355.7130691394527
245                                               1073.0220200122994                                1188.5795939352006                                1372.2493762428312                                1369.5565732499022                                1365.5423454697207                                1363.7126012467202                                1361.7039087974695
250                                               1091.519448042432                                 1201.8825218400543                                1378.5335482745768                                1375.6742455040194                                1371.5789041939206                                1369.7250979898186                                1367.6947484554862
