% Model:              batchmodel_BILLETTA_r_0.0445341_COIL_kr_2.7711_COIL_kw_3.7744_FUNZ_freq_6066_FUNZ_I_eff_127.5152.mph
% Version:            COMSOL 5.6.0.401
% Date:               Jan 27 2022, 19:21
% Table:              Tabella delle sonde 1 - 
% Tempo (s)                                       Temperatura (degC), Punto: (0, 0.5)               Temperatura (degC), Punto: (0.5*BILLETTA_r, 0.5)  Temperatura (degC), Punto: (BILLETTA_r-10*FUNZ_depth_billetta, 0.5)Temperatura (degC), Punto: (BILLETTA_r-5*FUNZ_depth_billetta, 0.5)Temperatura (degC), Punto: (BILLETTA_r-2*FUNZ_depth_billetta, 0.5)Temperatura (degC), Punto: (BILLETTA_r-FUNZ_depth_billetta, 0.5)Temperatura (degC), Punto: (BILLETTA_r-0.01[mm], 0.5)
0                                                 20                                                20.000000000000057                                20.000000003102855                                20.020073754314012                                20.52142814967658                                 20.887430615682888                                21.218800157510486
5                                                 21.087540195785664                                57.125507381786065                                1043.2425819570994                                1190.1219891937758                                1227.0459231715467                                1231.1559071593215                                1231.2953835393191
10                                                46.57709075028839                                 176.09074903894242                                1235.9796364849076                                1283.6427560326551                                1293.5858314234492                                1293.7965619339734                                1292.5069106014384
15                                                112.52712303722285                                292.1951735703477                                 1276.3566805676933                                1303.7383516475566                                1308.4619761670178                                1307.9308803455056                                1306.3658185511526
20                                                191.23380770921563                                392.93581848592146                                1314.0248406532846                                1334.1114905292307                                1336.8669513095024                                1336.010653128602                                 1334.2723866575543
25                                                269.2523715457701                                 481.0276228829018                                 1353.4053910119292                                1369.9191313505053                                1371.601275866134                                 1370.527925523454                                 1368.634126310957
25.882697873691697                                282.8238128944879                                 495.9666074142507                                 1360.465674687293                                 1376.4394243757642                                1377.950458540825                                 1376.8408141357436                                1374.9195524360298
