% Model:              batchmodel_BILLETTA_r_0.0335556_COIL_kr_2.4069_COIL_kw_5.3284_FUNZ_freq_4639.7_FUNZ_I_eff_127.5152.mph
% Version:            COMSOL 5.6.0.280
% Date:               Jan 27 2022, 19:49
% Table:              Tabella delle sonde 1 - 
% Tempo (s)                                       Temperatura (degC), Punto: (0, 0.5)               Temperatura (degC), Punto: (0.5*BILLETTA_r, 0.5)  Temperatura (degC), Punto: (BILLETTA_r-10*FUNZ_depth_billetta, 0.5)Temperatura (degC), Punto: (BILLETTA_r-5*FUNZ_depth_billetta, 0.5)Temperatura (degC), Punto: (BILLETTA_r-2*FUNZ_depth_billetta, 0.5)Temperatura (degC), Punto: (BILLETTA_r-FUNZ_depth_billetta, 0.5)Temperatura (degC), Punto: (BILLETTA_r-0.01[mm], 0.5)
0                                                 20                                                19.999999999999943                                20.000000001878277                                20.01502212826267                                 20.3974663009638                                  20.67627231505503                                 20.94012543450492
5                                                 32.208350372529026                                121.76044259198903                                941.0498958293364                                 1140.3001576758443                                1192.3537509646599                                1198.4668253985287                                1199.156649433456
10                                                135.6117729936464                                 316.5275724219805                                 1196.754341653846                                 1255.5440892325569                                1267.8517288997677                                1268.2543408319084                                1266.8841564247537
15                                                270.5276877858039                                 475.6784709884214                                 1252.814006203001                                 1281.833175177674                                 1286.3968910989552                                1285.694989140642                                 1283.9174146591586
20                                                394.71009218914617                                605.4574500602937                                 1290.7384744526262                                1308.648832532142                                 1310.2906376803799                                1309.1389582248912                                1307.1522920754583
25                                                501.283717713785                                  713.1281891585404                                 1328.6273489089494                                1342.6180890804108                                1343.1513186239995                                1341.7751777957706                                1339.6256125721488
30                                                591.6176468719876                                 822.1377496490799                                 1370.8894487749571                                1382.3365252653298                                1382.0214946056262                                1380.4422490497645                                1378.116837600966
30.177704962146844                                594.5462054738343                                 826.4703162759748                                 1372.383312166071                                 1383.723597229151                                 1383.3736605619101                                1381.7868286857565                                1379.4551076497469
