% Model:              batchmodel_BILLETTA_r_0.0542379_COIL_kr_1.9397_COIL_kw_4.5299_FUNZ_freq_4639.7_FUNZ_I_eff_174.7421.mph
% Version:            COMSOL 5.6.0.401
% Date:               Jan 28 2022, 01:10
% Table:              Tabella delle sonde 1 - 
% Tempo (s)                                       Temperatura (degC), Punto: (0, 0.5)               Temperatura (degC), Punto: (0.5*BILLETTA_r, 0.5)  Temperatura (degC), Punto: (BILLETTA_r-10*FUNZ_depth_billetta, 0.5)Temperatura (degC), Punto: (BILLETTA_r-5*FUNZ_depth_billetta, 0.5)Temperatura (degC), Punto: (BILLETTA_r-2*FUNZ_depth_billetta, 0.5)Temperatura (degC), Punto: (BILLETTA_r-FUNZ_depth_billetta, 0.5)Temperatura (degC), Punto: (BILLETTA_r-0.01[mm], 0.5)
0                                                 20                                                20                                                20.00000002206241                                 20.066744059757923                                20.651430249774307                                21.013845992090808                                21.350451486176894
5                                                 20.126117120523872                                37.30646205583065                                 1248.3967938902474                                1363.001740199219                                 1389.0765849192267                                1391.1373036110003                                1389.9882553841535
5.202048425061314                                 20.154322758812953                                39.45808274444528                                 1262.8082209965164                                1369.128688472193                                 1392.9541152010484                                1394.6981199211777                                1393.434795942102
