% Model:              batchmodel_BILLETTA_r_0.0335556_COIL_kr_1.9397_COIL_kw_5.3284_FUNZ_freq_7167.5_FUNZ_I_eff_162.3068.mph
% Version:            COMSOL 5.6.0.280
% Date:               Jan 27 2022, 18:55
% Table:              Tabella delle sonde 1 - 
% Tempo (s)                                       Temperatura (degC), Punto: (0, 0.5)               Temperatura (degC), Punto: (0.5*BILLETTA_r, 0.5)  Temperatura (degC), Punto: (BILLETTA_r-10*FUNZ_depth_billetta, 0.5)Temperatura (degC), Punto: (BILLETTA_r-5*FUNZ_depth_billetta, 0.5)Temperatura (degC), Punto: (BILLETTA_r-2*FUNZ_depth_billetta, 0.5)Temperatura (degC), Punto: (BILLETTA_r-FUNZ_depth_billetta, 0.5)Temperatura (degC), Punto: (BILLETTA_r-0.01[mm], 0.5)
0                                                 20                                                19.999999999999943                                20.000000044195872                                20.081907753039957                                20.90586767207924                                 21.425221625115057                                21.872677844437533
5                                                 34.198421382135336                                160.30605010519093                                1325.8578819162135                                1385.3372875059445                                1398.0243545263888                                1398.5340201635927                                1397.2299297118784
5.091163893036341                                 35.35783546441115                                 164.90240823615932                                1329.9973531251603                                1387.2953509329323                                1399.4234284738704                                1399.8550859493903                                1398.5221812692944
