% Model:              batchmodel_BILLETTA_r_0.0257427_COIL_kr_1.6756_COIL_kw_3.7744_FUNZ_freq_6066_FUNZ_I_eff_127.5152.mph
% Version:            COMSOL 5.6.0.280
% Date:               Jan 27 2022, 12:47
% Table:              Tabella delle sonde 1 - 
% Tempo (s)                                       Temperatura (degC), Punto: (0, 0.5)               Temperatura (degC), Punto: (0.5*BILLETTA_r, 0.5)  Temperatura (degC), Punto: (BILLETTA_r-10*FUNZ_depth_billetta, 0.5)Temperatura (degC), Punto: (BILLETTA_r-5*FUNZ_depth_billetta, 0.5)Temperatura (degC), Punto: (BILLETTA_r-2*FUNZ_depth_billetta, 0.5)Temperatura (degC), Punto: (BILLETTA_r-FUNZ_depth_billetta, 0.5)Temperatura (degC), Punto: (BILLETTA_r-0.01[mm], 0.5)
0                                                 19.999999999999943                                19.999999999999943                                20.00000000325724                                 20.020583977021943                                20.519742834102544                                20.878270734854425                                21.20130848488435
5                                                 83.60245375991474                                 244.30077199027312                                1100.7416487223045                                1214.256975052744                                 1240.807688794634                                 1243.370893023991                                 1242.9629905802858
10                                                311.6096534286995                                 524.7314612608458                                 1253.2847830119204                                1284.314194083875                                 1289.7543964964066                                1289.3346512180387                                1287.8457851594412
15                                                506.4628173144189                                 719.9714671460715                                 1306.706271886977                                 1323.1963556270812                                1324.9086706363287                                1323.9193527257585                                1322.1645863761578
20                                                650.4003336593711                                 915.632756800983                                  1366.6475670963218                                1378.763367952095                                 1379.1600374937884                                1377.8857582620817                                1375.9066079462264
21.546336849033924                                685.2936732429092                                 979.1117530505472                                 1384.196070355576                                 1394.734541625759                                 1394.660208394706                                 1393.2941011801263                                1391.246821231783
