% Model:              batchmodel_BILLETTA_r_0.0335556_COIL_kr_1.9397_COIL_kw_3.7744_FUNZ_freq_6066_FUNZ_I_eff_61.5962.mph
% Version:            COMSOL 5.6.0.280
% Date:               Jan 27 2022, 18:25
% Table:              Tabella delle sonde 1 - 
% Tempo (s)                                       Temperatura (degC), Punto: (0, 0.5)               Temperatura (degC), Punto: (0.5*BILLETTA_r, 0.5)  Temperatura (degC), Punto: (BILLETTA_r-10*FUNZ_depth_billetta, 0.5)Temperatura (degC), Punto: (BILLETTA_r-5*FUNZ_depth_billetta, 0.5)Temperatura (degC), Punto: (BILLETTA_r-2*FUNZ_depth_billetta, 0.5)Temperatura (degC), Punto: (BILLETTA_r-FUNZ_depth_billetta, 0.5)Temperatura (degC), Punto: (BILLETTA_r-0.01[mm], 0.5)
0                                                 20.000000000000057                                20                                                20.000000000022226                                20.00010199865619                                 20.140974366635817                                20.332142492226183                                20.529442739033925
5                                                 25.344058140960726                                59.20066945833048                                 336.8920058877752                                 394.7013367230586                                 428.94058525885407                                436.31131170820606                                439.15853571647324
10                                                68.80457918402317                                 168.23502077674948                                603.778855351435                                  685.6933092746538                                 729.0087512199464                                 737.7575630163526                                 740.8590867025655
15                                                158.3702572597448                                 290.9899746993732                                 788.0670269542699                                 883.4025402571607                                 928.7512105895888                                 937.3257232642744                                 939.9735450219099
20                                                258.07786166016615                                400.3489471194256                                 968.1477105225821                                 1053.0768624180423                                1079.1591886047454                                1082.3060798247216                                1082.489942870301
25                                                349.528497049114                                  493.0553114407212                                 1029.3601756454127                                1079.1324411346604                                1091.9639281047303                                1093.0701900272043                                1092.5340634938161
30                                                431.46077816692275                                571.4542428593685                                 1060.9629902796464                                1093.019772016963                                 1100.5170636698995                                1100.8220830952314                                1099.9983146117206
35                                                502.815610484                                     635.8986788726259                                 1080.5005382482505                                1103.0644472514377                                1107.7289675559591                                1107.6027551950856                                1106.6188731848897
40                                                564.8738287693367                                 689.6631212204737                                 1096.0227172662508                                1112.1230022783893                                1114.8178788058485                                1114.386054056834                                 1113.2843426315367
45                                                617.8121368201093                                 735.4893856128888                                 1108.3294150840538                                1120.2084382414341                                1121.6003607015641                                1120.9613289776535                                1119.7753916350443
50                                                661.7823540652882                                 774.9978441517225                                 1118.2428948607162                                1127.4675905227464                                1128.0361255438734                                1127.2614882640473                                1126.01602209372
55                                                697.227421608883                                  815.7647946069216                                 1127.524442323558                                 1134.5665400530966                                1134.4505430899217                                1133.5611592803757                                1132.263178841557
60                                                724.7617670639004                                 855.9452310598034                                 1135.9698329313405                                1141.4775570285028                                1140.8692198659255                                1139.8936347733902                                1138.5526589285196
65                                                747.6566111429946                                 894.3411828657762                                 1144.5357326950616                                1148.7145345999247                                1147.671623265811                                 1146.6176685857126                                1145.2353973184186
70                                                770.1656346219246                                 930.537623455495                                  1153.2258174619806                                1156.3457732145548                                1154.9451200891622                                1153.8232027730146                                1152.4019761090208
75                                                798.3169858199477                                 963.7062696836978                                 1162.4157146130847                                1164.644086159727                                 1162.930693902933                                 1161.745932175244                                 1160.2857374434793
80                                                835.3086799824367                                 994.9501422334766                                 1172.291581712309                                 1173.7740094266437                                1171.785917235135                                 1170.5420596226668                                1169.0419900076804
85                                                881.017337705996                                  1024.4004421072282                                1182.9035167336947                                1183.773987403129                                 1181.5456253182715                                1180.2457987876587                                1178.7046374429838
90                                                927.539259679016                                  1052.7954786643663                                1194.4699551954927                                1194.7946845749157                                1192.3397866742716                                1190.9836535932604                                1189.3985568553098
95                                                970.4047097939475                                 1078.5760852635963                                1207.1938400221838                                1207.0681145445292                                1204.4103661247868                                1202.999655694016                                 1201.3690543891512
100                                               1004.4464019677924                                1102.0214036895695                                1220.5925043958446                                1220.0530321610354                                1217.2032722568529                                1215.7395972619656                                1214.0638887529644
105                                               1038.4880941416372                                1125.4667221155428                                1233.9911687695062                                1233.037949777542                                 1229.996178388919                                 1228.4795388299158                                1226.7587231167777
110                                               1072.5297863154824                                1148.9120405415165                                1247.3898331431674                                1246.0228673940492                                1242.7890845209854                                1241.2194803978655                                1239.4535574805914
115                                               1099.2249645585239                                1169.486837820462                                 1260.8207242599815                                1259.0958063712164                                1255.6851947684463                                1254.0640615252896                                1252.2525134052867
120                                               1125.776609715931                                 1190.005552069893                                 1274.2522450092897                                1272.1704650725433                                1268.5833213743163                                1266.9106870562214                                1265.0535036130518
125                                               1152.1104590011355                                1210.4076743068763                                1287.6565611179208                                1285.2198392246223                                1281.4567370365417                                1279.7326849516312                                1277.8298915855498
130                                               1174.0450640859385                                1228.4547623121007                                1300.5113725159777                                1297.758492463991                                 1293.831018007133                                 1292.0572308905635                                1290.109340659615
135                                               1195.979669170742                                 1246.501850317325                                 1313.3661839140345                                1310.2971457033595                                1306.2052989777249                                1304.3817768294957                                1302.3887897336808
140                                               1217.5646584285441                                1264.3329996743237                                1326.11630940741                                  1322.7346379563455                                1318.4798402997644                                1316.60690186786                                  1314.5690397421317
145                                               1236.419152667861                                 1280.477671023917                                 1338.0488393597302                                1334.382064233916                                 1329.975416276176                                 1328.0555509781684                                1325.974546350601
150                                               1255.2736469071779                                1296.6223423735105                                1349.981369312051                                 1346.029490511486                                 1341.4709922525872                                1339.5042000884764                                1337.3800529590703
155                                               1273.826577125286                                 1312.4817365061185                                1361.6448846714702                                1357.4149278457799                                1352.7082038346302                                1350.6954960465905                                1348.529092865374
160                                               1290.3688328769854                                1326.439048242622                                 1371.5147484842973                                1367.0535570674438                                1362.2227739400691                                1360.1708929730717                                1357.9681441348966
165                                               1305.8339631941226                                1339.3774077013168                                1380.4237468095216                                1375.7564149950235                                1370.8145189039542                                1368.7270767096566                                1366.4911484339818
170                                               1320.2219680766984                                1351.2968148822051                                1388.3718796471435                                1383.5235016285183                                1378.4834387262858                                1376.3640472563457                                1374.0981057626304
175                                               1333.5328475247115                                1362.1972697852848                                1395.359146997163                                 1390.3548169679289                                1385.2295334070645                                1383.0818046131367                                1380.789016120842
179.10078545762318                                1343.6458853322638                                1370.3768016818453                                1400.3726067801063                                1395.2591020944997                                1390.073587309816                                 1387.9053134460141                                1385.5928694869976
