% Model:              batchmodel_BILLETTA_r_0.0257427_COIL_kr_2.7711_COIL_kw_4.5299_FUNZ_freq_4639.7_FUNZ_I_eff_61.5962.mph
% Version:            COMSOL 5.6.0.280
% Date:               Jan 27 2022, 15:36
% Table:              Tabella delle sonde 1 - 
% Tempo (s)                                       Temperatura (degC), Punto: (0, 0.5)               Temperatura (degC), Punto: (0.5*BILLETTA_r, 0.5)  Temperatura (degC), Punto: (BILLETTA_r-10*FUNZ_depth_billetta, 0.5)Temperatura (degC), Punto: (BILLETTA_r-5*FUNZ_depth_billetta, 0.5)Temperatura (degC), Punto: (BILLETTA_r-2*FUNZ_depth_billetta, 0.5)Temperatura (degC), Punto: (BILLETTA_r-FUNZ_depth_billetta, 0.5)Temperatura (degC), Punto: (BILLETTA_r-0.01[mm], 0.5)
0                                                 20                                                19.999999999999773                                20.000000000013415                                20.000054597935787                                20.107125680974207                                20.253712530578014                                20.412707562474907
5                                                 40.251093454805925                                92.91363652971211                                 290.496958170271                                  343.50480193421436                                375.5681064484021                                 382.6048211766962                                 385.34376085957194
10                                                141.5907402071404                                 239.50415858312942                                539.6018973291891                                 619.5210302759384                                 663.0256130124402                                 671.6030938929612                                 674.6544468493336
15                                                275.8785621970359                                 395.1506472503411                                 758.5537032188516                                 871.0883588729506                                 928.6131038935442                                 938.7470999375815                                 941.7676138080511
20                                                405.7097473437742                                 532.1777098926921                                 954.8681162562376                                 1048.9522943630695                                1078.1203282038641                                1081.5419602298962                                1081.673351094018
25                                                516.5582689678265                                 639.4139436162341                                 1030.0389241741477                                1078.6902956926046                                1090.7141152808167                                1091.5759627536163                                1090.8208474119865
30                                                607.1615375918802                                 719.096389353954                                  1062.2051431527161                                1091.6644195899403                                1098.1964310530502                                1098.2540624543458                                1097.2127423692882
35                                                676.6546635669118                                 784.2383097448518                                 1085.0156022067008                                1103.7452224083213                                1106.888290979206                                 1106.4170241065162                                1105.1755095990798
40                                                723.7741051054832                                 847.3582654230769                                 1100.0098347743306                                1112.9294741963154                                1114.3378418362145                                1113.5941174715917                                1112.2430425843036
45                                                758.061890356288                                  906.3714659524866                                 1112.8376498391785                                1121.5066404692602                                1121.6170413841364                                1120.6645784255948                                1119.2254034184139
50                                                801.3992423986195                                 958.0755289904199                                 1124.6282523792624                                1130.1691161059348                                1129.3007187864505                                1128.185297111046                                 1126.6722924359606
55                                                867.194958814424                                  1004.1941706070382                                1136.0248860396905                                1139.317962140677                                 1137.7254612153506                                1136.4829011021916                                1134.9061221810703
60                                                941.4766545688311                                 1046.1473425869626                                1147.7286436088884                                1149.3184567022786                                1147.1558733245952                                1145.8065831833987                                1144.1701325115464
65                                                1005.6170315840851                                1083.5240062801172                                1160.4008757540391                                1160.632516777754                                 1157.9908636246118                                1156.5449562991894                                1154.848368197347
70                                                1056.9988136043999                                1116.025318786395                                 1174.3087391330773                                1173.443459451159                                 1170.3883728399255                                1168.851731384384                                 1167.0925338669372
75                                                1098.172752265108                                 1144.2090380208474                                1189.3975462844214                                1187.63422183087                                  1184.2147922780837                                1182.5911092298606                                1180.7662895913968
80                                                1132.3299547182537                                1169.4343799715698                                1205.1278987937635                                1202.623112394128                                 1198.8841053586607                                1197.178775159602                                 1195.2883995425573
85                                                1160.2319638789195                                1192.0157488184004                                1221.380904369174                                 1218.279640080881                                 1214.2642427998203                                1212.482946560879                                 1210.5277315213084
90                                                1185.2774938290672                                1213.010935138394                                 1237.340445757237                                 1233.7301468416722                                1229.4683121095468                                1227.6169227629257                                1225.600520952209
95                                                1206.8558680979327                                1232.2228886901962                                1253.1385794739153                                1249.1140335502228                                1244.6366945059285                                1242.7206667673863                                1240.6458692135675
100                                               1226.8212826801996                                1250.2902588945203                                1268.2986394376107                                1263.897370947916                                 1259.2174498489899                                1257.2391552287309                                1255.1072195333327
105                                               1244.9830719891443                                1267.1820853690047                                1282.9218819205157                                1278.1865958251888                                1273.3189579792356                                1271.2812410571019                                1269.093803315161
110                                               1262.6498366138553                                1283.4481393549145                                1296.8281594440477                                1291.7609289272332                                1286.7087869578563                                1284.6130007856182                                1282.3714774182063
115                                               1279.3359406411341                                1298.8843947643604                                1310.0843266971024                                1304.702303837083                                 1299.4731948056728                                1297.3212459573933                                1295.0271349089794
120                                               1295.0413840709807                                1313.490851597342                                 1322.6903836796796                                1317.0107205547374                                1311.6121815226857                                1309.4059765724273                                1307.060775787481
125                                               1309.9024907686326                                1327.2378990078237                                1334.523104686486                                 1328.5674007025464                                1323.010324989515                                 1320.7529808393233                                1318.359414465524
130                                               1323.9142579479494                                1340.1266236487554                                1345.587011829989                                 1339.3767031858301                                1333.6718609441828                                1331.3664500797254                                1328.9271972657925
135                                               1337.0339811843528                                1352.166301329174                                 1355.9207064426018                                1349.4758361798508                                1343.632946190071                                 1341.2821619531314                                1338.7995177308676
140                                               1349.2154025233467                                1363.3107231008212                                1365.485680689012                                 1358.8274974438423                                1352.8570695859003                                1350.463875856527                                 1347.9403989348452
145                                               1359.8945578710477                                1372.9965223401869                                1373.8124577692383                                1366.9769084506875                                1360.8990974690882                                1358.4697564544767                                1355.9112202201627
150                                               1369.4082356686745                                1381.5601306907465                                1381.1814001414032                                1374.1956541344425                                1368.0248550472688                                1365.5636592574824                                1362.9739173539165
155                                               1377.7564359162257                                1389.0015481524997                                1387.5925078055052                                1380.483734495107                                 1374.234342320442                                 1371.745584265544                                 1369.128490336107
160                                               1384.939158613703                                 1395.3207747254464                                1393.0457807615453                                1385.8411495326814                                1379.5275592886082                                1377.015531478662                                 1374.3749391667343
164.54407391930786                                1390.4560117994101                                1400.0904158320427                                1397.17098960866                                  1389.9028074551893                                1383.543359000816                                 1381.0139065289013                                1378.355301111022
