% Model:              batchmodel_BILLETTA_r_0.0257427_COIL_kr_1.6756_COIL_kw_5.3284_FUNZ_freq_6066_FUNZ_I_eff_162.3068.mph
% Version:            COMSOL 5.6.0.280
% Date:               Jan 27 2022, 13:10
% Table:              Tabella delle sonde 1 - 
% Tempo (s)                                       Temperatura (degC), Punto: (0, 0.5)               Temperatura (degC), Punto: (0.5*BILLETTA_r, 0.5)  Temperatura (degC), Punto: (BILLETTA_r-10*FUNZ_depth_billetta, 0.5)Temperatura (degC), Punto: (BILLETTA_r-5*FUNZ_depth_billetta, 0.5)Temperatura (degC), Punto: (BILLETTA_r-2*FUNZ_depth_billetta, 0.5)Temperatura (degC), Punto: (BILLETTA_r-FUNZ_depth_billetta, 0.5)Temperatura (degC), Punto: (BILLETTA_r-0.01[mm], 0.5)
0                                                 19.999999999999943                                19.999999999999943                                20.000000027542512                                20.068544813665596                                20.763255572948538                                21.201962235636756                                21.58927911747196
5                                                 108.4629420203812                                 297.643530767931                                  1287.1428027799589                                1357.5965938164927                                1372.8750517948488                                1373.6499468529446                                1372.3535527656127
6.500345196549019                                 181.5037146875478                                 404.0722091168641                                 1345.0587318202383                                1388.5575522865151                                1396.6375503045683                                1396.3820855413383                                1394.6917297886907
