% Model:              batchmodel_BILLETTA_r_0.0131664_COIL_kr_1.6756_COIL_kw_3.7744_FUNZ_freq_2540.9_FUNZ_I_eff_162.3068.mph
% Version:            COMSOL 5.6.0.401
% Date:               Jan 27 2022, 12:24
% Table:              Tabella delle sonde 1 - 
% Tempo (s)                                       Temperatura (degC), Punto: (0, 0.5)               Temperatura (degC), Punto: (0.5*BILLETTA_r, 0.5)  Temperatura (degC), Punto: (BILLETTA_r-10*FUNZ_depth_billetta, 0.5)Temperatura (degC), Punto: (BILLETTA_r-5*FUNZ_depth_billetta, 0.5)Temperatura (degC), Punto: (BILLETTA_r-2*FUNZ_depth_billetta, 0.5)Temperatura (degC), Punto: (BILLETTA_r-FUNZ_depth_billetta, 0.5)Temperatura (degC), Punto: (BILLETTA_r-0.01[mm], 0.5)
0                                                 20                                                20                                                20.000000006599294                                20.031733396108052                                20.31064904971896                                 20.478772328569846                                20.645776536284302
5                                                 516.9460716649895                                 713.1178823032201                                 1031.2126806799733                                1193.8300795016708                                1228.0716312560075                                1230.81068225842                                  1229.7361989167734
10                                                1157.7767451516588                                1257.9283941686217                                1298.7186985699182                                1312.2238443314272                                1311.6154671884888                                1309.6575106427408                                1306.8087451127508
14.868397981288966                                1327.2739082376092                                1361.6958302703897                                1377.624686734518                                 1380.8661573712106                                1377.066539212979                                 1374.462236284829                                 1371.1534021313332
