% Model:              batchmodel_BILLETTA_r_0.0335556_COIL_kr_2.7711_COIL_kw_3.2356_FUNZ_freq_6066_FUNZ_I_eff_85.0125.mph
% Version:            COMSOL 5.6.0.280
% Date:               Jan 27 2022, 20:14
% Table:              Tabella delle sonde 1 - 
% Tempo (s)                                       Temperatura (degC), Punto: (0, 0.5)               Temperatura (degC), Punto: (0.5*BILLETTA_r, 0.5)  Temperatura (degC), Punto: (BILLETTA_r-10*FUNZ_depth_billetta, 0.5)Temperatura (degC), Punto: (BILLETTA_r-5*FUNZ_depth_billetta, 0.5)Temperatura (degC), Punto: (BILLETTA_r-2*FUNZ_depth_billetta, 0.5)Temperatura (degC), Punto: (BILLETTA_r-FUNZ_depth_billetta, 0.5)Temperatura (degC), Punto: (BILLETTA_r-0.01[mm], 0.5)
0                                                 20                                                20                                                20.000000000172406                                20.001006726705043                                20.260608474861215                                20.51926919549004                                 20.767970030432423
5                                                 26.907533895064603                                84.29545597635331                                 579.1380889078231                                 693.5914346589141                                 753.8218395353125                                 765.8762318964979                                 770.1717896527867
10                                                95.90535123304238                                 241.34483356592898                                988.8146781663492                                 1101.845450937752                                 1130.5128807309388                                1133.6014477023855                                1133.6107908692447
15                                                215.85826161211077                                390.020565035461                                  1100.1048192140506                                1146.1103834015598                                1156.5464625222635                                1157.0935074039485                                1156.217897169095
20                                                332.49925774049757                                508.48635360698233                                1128.695915137827                                 1154.658124228179                                 1159.421119504067                                 1159.16122127369                                  1158.0140490820177
25                                                433.29447405852966                                600.75141740855                                   1147.7314543677257                                1165.0722847562738                                1167.547148912041                                 1166.954384629391                                 1165.6801842232458
30                                                517.1793838593658                                 674.5848144295875                                 1165.9238527368188                                1178.0267165433893                                1179.0340851115675                                1178.212039741683                                 1176.8362932661066
35                                                587.3882513822869                                 735.2736559231977                                 1182.908079639641                                 1192.1034918270184                                1192.2686735038974                                1191.3015253090052                                1189.84749499477
40                                                645.0096632771216                                 792.3273688205107                                 1200.650413554983                                 1208.026224832393                                 1207.621833816651                                 1206.5435397208007                                1205.0179942549594
45                                                691.088275219869                                  853.4551305384097                                 1220.4081248608918                                1226.5197273875915                                1225.6910647307413                                1224.518996020739                                 1222.9244112793926
50                                                724.9598944189486                                 914.3107045722219                                 1242.8133212283683                                1248.06380386499                                  1246.8983467764565                                1245.6379789055277                                1243.9688985572357
55                                                752.7156223937139                                 971.8846779639138                                 1268.1760273921232                                1272.7736895514436                                1271.2985993569955                                1269.9453704658235                                1268.1915292148715
60                                                787.5228316662416                                 1025.7576168504743                                1296.2190350525352                                1300.2049573548347                                1298.401884272986                                 1296.9452320316786                                1295.0950402446565
65                                                842.8692580993032                                 1077.1018515858868                                1326.1529931417263                                1329.4570516094464                                1327.2834700016265                                1325.7112511962077                                1323.7545161601902
70                                                919.1811230427403                                 1126.8041842951407                                1356.203471366964                                 1358.6614941431426                                1356.070482281188                                 1354.3749462943097                                1352.307267931073
75                                                1000.1567798090367                                1175.0764893835426                                1382.7948384113224                                1384.1913592366495                                1381.1612000251753                                1379.3480440619096                                1377.1787730009405
78.6513743355442                                  1054.4259358638255                                1209.1041470409828                                1397.5840330163246                                1398.1615110377375                                1394.8356267426848                                1392.9507445874328                                1390.7229487377172
