% Model:              batchmodel_BILLETTA_r_0.0257427_COIL_kr_1.6756_COIL_kw_4.5299_FUNZ_freq_8940.8_FUNZ_I_eff_127.5152.mph
% Version:            COMSOL 5.6.0.280
% Date:               Jan 27 2022, 13:04
% Table:              Tabella delle sonde 1 - 
% Tempo (s)                                       Temperatura (degC), Punto: (0, 0.5)               Temperatura (degC), Punto: (0.5*BILLETTA_r, 0.5)  Temperatura (degC), Punto: (BILLETTA_r-10*FUNZ_depth_billetta, 0.5)Temperatura (degC), Punto: (BILLETTA_r-5*FUNZ_depth_billetta, 0.5)Temperatura (degC), Punto: (BILLETTA_r-2*FUNZ_depth_billetta, 0.5)Temperatura (degC), Punto: (BILLETTA_r-FUNZ_depth_billetta, 0.5)Temperatura (degC), Punto: (BILLETTA_r-0.01[mm], 0.5)
0                                                 20                                                19.999999999999943                                20.000000012957116                                20.033861617707373                                20.774933958364045                                21.303203813300456                                21.74550643722955
5                                                 98.39899551142207                                 266.88883785030714                                1197.4693447660306                                1263.120369530558                                 1278.1894618201686                                1279.3393086747706                                1278.6391106228625
10                                                325.73536483316195                                536.8731249147114                                 1292.163095258909                                 1314.9628611172816                                1318.9939785673932                                1318.567859264218                                 1317.2783153298196
14.533426283674162                                499.8188649860283                                 715.3877429034673                                 1362.507930943705                                 1377.9755071429336                                1379.9365193608155                                1379.1306570865204                                1377.597724844698
