% Model:              batchmodel_COIL_N_22_COIL_kr_3_COIL_kh_2_COIL_kturn_1.1_FUNZ_freq_10000_FUNZ_I_eff_4000.mph
% Version:            COMSOL 5.6.0.280
% Date:               Feb 3 2022, 05:41
% Table:              Tabella 1 - GRIGLIA_T
% COIL_N                 COIL_kr                  COIL_kh                  COIL_kturn               FUNZ_freq                FUNZ_I_eff               Time (s)                 Temperatura (degC), Punto: (0, 0)Temperatura (degC), Punto: (15, 0)Temperatura (degC), Punto: (28.051, 0)Temperatura (degC), Punto: (29.025, 0)Temperatura (degC), Punto: (29.61, 0)Temperatura (degC), Punto: (29.805, 0)Temperatura (degC), Punto: (0, 62.5)Temperatura (degC), Punto: (15, 62.5)Temperatura (degC), Punto: (28.051, 62.5)Temperatura (degC), Punto: (29.025, 62.5)Temperatura (degC), Punto: (29.61, 62.5)Temperatura (degC), Punto: (29.805, 62.5)Temperatura (degC), Punto: (0, 125)Temperatura (degC), Punto: (15, 125)Temperatura (degC), Punto: (28.051, 125)Temperatura (degC), Punto: (29.025, 125)Temperatura (degC), Punto: (29.61, 125)Temperatura (degC), Punto: (29.805, 125)Temperatura (degC), Punto: (0, 187.5)Temperatura (degC), Punto: (15, 187.5)Temperatura (degC), Punto: (28.051, 187.5)Temperatura (degC), Punto: (29.025, 187.5)Temperatura (degC), Punto: (29.61, 187.5)Temperatura (degC), Punto: (29.805, 187.5)Temperatura (degC), Punto: (0, 250)Temperatura (degC), Punto: (15, 250)Temperatura (degC), Punto: (28.051, 250)Temperatura (degC), Punto: (29.025, 250)Temperatura (degC), Punto: (29.61, 250)Temperatura (degC), Punto: (29.805, 250)Temperatura (degC), Punto: (0, 312.5)Temperatura (degC), Punto: (15, 312.5)Temperatura (degC), Punto: (28.051, 312.5)Temperatura (degC), Punto: (29.025, 312.5)Temperatura (degC), Punto: (29.61, 312.5)Temperatura (degC), Punto: (29.805, 312.5)Temperatura (degC), Punto: (0, 375)Temperatura (degC), Punto: (15, 375)Temperatura (degC), Punto: (28.051, 375)Temperatura (degC), Punto: (29.025, 375)Temperatura (degC), Punto: (29.61, 375)Temperatura (degC), Punto: (29.805, 375)Temperatura (degC), Punto: (0, 437.5)Temperatura (degC), Punto: (15, 437.5)Temperatura (degC), Punto: (28.051, 437.5)Temperatura (degC), Punto: (29.025, 437.5)Temperatura (degC), Punto: (29.61, 437.5)Temperatura (degC), Punto: (29.805, 437.5)Temperatura (degC), Punto: (0, 468.75)Temperatura (degC), Punto: (15, 468.75)Temperatura (degC), Punto: (28.051, 468.75)Temperatura (degC), Punto: (29.025, 468.75)Temperatura (degC), Punto: (29.61, 468.75)Temperatura (degC), Punto: (29.805, 468.75)Temperatura (degC), Punto: (0, 492.19)Temperatura (degC), Punto: (15, 492.19)Temperatura (degC), Punto: (28.051, 492.19)Temperatura (degC), Punto: (29.025, 492.19)Temperatura (degC), Punto: (29.61, 492.19)Temperatura (degC), Punto: (29.805, 492.19)
22.000                   3.0000                   2.0000                   1.1000                   10000                    4000.0                   0.0000                   20.000                   20.000                   20.000                   20.003                   20.413                   20.814                   20.000                   20.000                   20.000                   20.003                   20.412                   20.814                   20.000                   20.000                   20.000                   20.003                   20.412                   20.814                   20.000                   20.000                   20.000                   20.003                   20.412                   20.814                   20.000                   20.000                   20.000                   20.003                   20.412                   20.814                   20.000                   20.000                   20.000                   20.003                   20.412                   20.814                   20.000                   20.000                   20.000                   20.003                   20.412                   20.813                   20.000                   20.000                   20.000                   20.002                   20.387                   20.777                   20.000                   20.000                   20.000                   20.001                   20.317                   20.670                   20.000                   20.000                   20.000                   20.000                   20.235                   20.537
22.000                   3.0000                   2.0000                   1.1000                   10000                    4000.0                   5.0000                   41.722                   133.37                   839.59                   1010.1                   1073.7                   1083.2                   41.527                   133.47                   831.40                   998.80                   1063.6                   1073.4                   41.533                   133.44                   841.08                   1012.5                   1075.9                   1085.3                   41.528                   133.46                   840.22                   1011.4                   1074.9                   1084.4                   41.536                   133.45                   832.30                   1000.0                   1064.8                   1074.6                   41.556                   133.56                   836.37                   1005.9                   1070.1                   1079.7                   41.546                   133.59                   842.14                   1013.2                   1076.5                   1085.8                   41.044                   131.32                   815.55                   988.18                   1056.5                   1067.0                   38.585                   118.74                   665.73                   774.09                   834.21                   845.66                   49.435                   120.72                   518.69                   586.55                   623.74                   631.23
22.000                   3.0000                   2.0000                   1.1000                   10000                    4000.0                   10.000                   168.97                   334.64                   1088.7                   1137.0                   1148.3                   1149.2                   168.95                   335.27                   1084.9                   1133.5                   1145.0                   1145.9                   168.89                   335.94                   1135.3                   1177.8                   1187.4                   1188.0                   168.89                   335.42                   1108.5                   1153.7                   1164.1                   1164.8                   168.93                   335.08                   1084.6                   1133.3                   1144.9                   1145.8                   168.93                   334.95                   1097.9                   1146.0                   1157.4                   1158.2                   169.07                   335.76                   1119.0                   1164.1                   1174.5                   1175.2                   166.43                   333.80                   1144.8                   1185.4                   1194.5                   1194.9                   152.58                   299.04                   926.39                   1015.7                   1048.9                   1053.8                   154.90                   283.89                   733.67                   802.80                   840.08                   847.15
22.000                   3.0000                   2.0000                   1.1000                   10000                    4000.0                   15.000                   313.80                   485.67                   1129.3                   1153.8                   1158.8                   1158.7                   314.44                   488.31                   1131.4                   1155.0                   1159.7                   1159.6                   313.94                   487.54                   1140.7                   1163.7                   1168.2                   1168.0                   313.89                   486.70                   1133.1                   1157.0                   1161.7                   1161.7                   314.26                   487.42                   1129.6                   1153.6                   1158.5                   1158.4                   313.89                   486.23                   1130.8                   1155.1                   1160.0                   1160.0                   314.30                   487.66                   1134.5                   1158.0                   1162.7                   1162.6                   311.00                   486.68                   1142.6                   1164.7                   1169.0                   1168.8                   288.21                   447.04                   1132.1                   1167.7                   1175.5                   1175.8                   278.81                   415.65                   861.51                   924.78                   955.11                   960.51
22.000                   3.0000                   2.0000                   1.1000                   10000                    4000.0                   20.000                   432.08                   594.62                   1155.2                   1170.5                   1173.0                   1172.6                   433.09                   597.45                   1157.0                   1172.0                   1174.3                   1173.9                   432.30                   595.95                   1157.7                   1172.8                   1175.1                   1174.7                   432.24                   595.44                   1156.1                   1171.3                   1173.7                   1173.3                   432.82                   596.53                   1156.1                   1171.2                   1173.6                   1173.1                   432.25                   595.16                   1155.6                   1170.9                   1173.3                   1172.9                   432.75                   596.34                   1156.5                   1171.6                   1174.0                   1173.5                   429.26                   593.91                   1152.2                   1167.3                   1169.7                   1169.3                   404.34                   561.00                   1141.5                   1160.0                   1163.3                   1163.0                   386.09                   517.30                   928.53                   973.14                   994.26                   997.99
22.000                   3.0000                   2.0000                   1.1000                   10000                    4000.0                   25.000                   527.28                   679.06                   1179.0                   1189.6                   1190.8                   1190.1                   528.29                   681.40                   1180.3                   1190.8                   1191.9                   1191.2                   527.49                   679.91                   1179.7                   1190.3                   1191.4                   1190.8                   527.45                   679.69                   1179.3                   1190.0                   1191.1                   1190.4                   528.04                   680.68                   1179.8                   1190.4                   1191.4                   1190.8                   527.49                   679.54                   1179.2                   1189.8                   1190.9                   1190.3                   527.92                   680.34                   1179.4                   1190.0                   1191.0                   1190.4                   523.98                   676.14                   1170.0                   1180.8                   1181.9                   1181.3                   499.55                   647.80                   1145.1                   1157.6                   1159.3                   1158.8                   475.50                   600.41                   1042.6                   1072.3                   1080.8                   1081.6
22.000                   3.0000                   2.0000                   1.1000                   10000                    4000.0                   30.000                   602.35                   748.00                   1204.5                   1212.7                   1213.1                   1212.3                   603.17                   750.49                   1205.3                   1213.5                   1213.8                   1213.1                   602.52                   749.06                   1204.7                   1212.9                   1213.3                   1212.5                   602.49                   749.00                   1204.6                   1212.8                   1213.2                   1212.4                   602.99                   749.79                   1205.0                   1213.2                   1213.6                   1212.8                   602.55                   748.90                   1204.5                   1212.7                   1213.1                   1212.3                   602.86                   749.38                   1204.3                   1212.6                   1212.9                   1212.1                   598.34                   742.27                   1191.0                   1199.2                   1199.6                   1198.9                   575.14                   713.03                   1156.2                   1165.5                   1166.3                   1165.6                   549.44                   670.67                   1119.3                   1135.1                   1137.9                   1137.5
22.000                   3.0000                   2.0000                   1.1000                   10000                    4000.0                   35.000                   663.80                   820.84                   1233.9                   1240.7                   1240.6                   1239.7                   664.32                   822.33                   1234.5                   1241.3                   1241.2                   1240.3                   663.84                   821.23                   1234.0                   1240.8                   1240.7                   1239.8                   663.81                   821.08                   1234.0                   1240.8                   1240.7                   1239.8                   664.20                   822.00                   1234.4                   1241.2                   1241.0                   1240.2                   663.88                   821.06                   1234.0                   1240.8                   1240.7                   1239.8                   664.07                   821.39                   1233.5                   1240.3                   1240.1                   1239.3                   659.20                   809.25                   1215.3                   1222.0                   1221.9                   1221.0                   637.39                   770.70                   1170.9                   1178.0                   1178.1                   1177.3                   613.27                   732.78                   1161.6                   1170.4                   1170.9                   1170.2
22.000                   3.0000                   2.0000                   1.1000                   10000                    4000.0                   40.000                   713.29                   898.70                   1268.8                   1274.7                   1274.2                   1273.2                   713.32                   899.49                   1269.3                   1275.2                   1274.7                   1273.7                   713.00                   898.75                   1269.0                   1274.9                   1274.4                   1273.4                   713.01                   898.66                   1269.0                   1274.9                   1274.4                   1273.4                   713.21                   899.43                   1269.3                   1275.2                   1274.7                   1273.7                   713.07                   898.71                   1269.0                   1274.9                   1274.4                   1273.4                   713.09                   898.64                   1268.2                   1274.1                   1273.6                   1272.6                   707.72                   880.85                   1244.1                   1249.8                   1249.3                   1248.3                   687.58                   830.69                   1188.9                   1194.4                   1194.0                   1193.2                   666.95                   796.74                   1193.3                   1198.7                   1198.3                   1197.4
22.000                   3.0000                   2.0000                   1.1000                   10000                    4000.0                   45.000                   773.89                   977.72                   1311.4                   1316.5                   1315.6                   1314.5                   774.29                   978.33                   1311.9                   1317.0                   1316.0                   1314.9                   773.97                   977.84                   1311.6                   1316.7                   1315.8                   1314.7                   773.95                   977.77                   1311.6                   1316.7                   1315.8                   1314.7                   774.29                   978.36                   1311.9                   1317.0                   1316.0                   1314.9                   774.12                   977.89                   1311.7                   1316.8                   1315.8                   1314.7                   773.72                   977.37                   1310.6                   1315.7                   1314.7                   1313.6                   757.99                   953.63                   1280.5                   1285.4                   1284.6                   1283.5                   722.54                   894.00                   1213.0                   1217.7                   1217.0                   1216.0                   703.97                   870.02                   1222.7                   1227.0                   1226.1                   1225.1
22.000                   3.0000                   2.0000                   1.1000                   10000                    4000.0                   50.000                   839.31                   1054.8                   1351.9                   1356.1                   1354.7                   1353.5                   840.01                   1055.2                   1352.3                   1356.5                   1355.1                   1353.8                   839.70                   1055.0                   1352.1                   1356.3                   1355.0                   1353.7                   839.66                   1054.9                   1352.1                   1356.3                   1354.9                   1353.7                   840.12                   1055.3                   1352.3                   1356.5                   1355.1                   1353.9                   839.94                   1055.1                   1352.2                   1356.4                   1355.0                   1353.8                   839.14                   1054.2                   1350.9                   1355.1                   1353.7                   1352.5                   813.82                   1025.1                   1316.8                   1321.0                   1319.7                   1318.6                   763.14                   956.89                   1238.4                   1242.1                   1241.1                   1240.1                   745.74                   942.66                   1252.8                   1256.0                   1254.6                   1253.5
22.000                   3.0000                   2.0000                   1.1000                   10000                    4000.0                   55.000                   927.67                   1122.6                   1382.3                   1385.1                   1383.2                   1381.9                   928.35                   1122.9                   1382.5                   1385.3                   1383.5                   1382.1                   928.14                   1122.8                   1382.5                   1385.3                   1383.4                   1382.0                   928.10                   1122.7                   1382.4                   1385.3                   1383.4                   1382.0                   928.49                   1123.1                   1382.6                   1385.4                   1383.5                   1382.1                   928.38                   1122.9                   1382.5                   1385.3                   1383.4                   1382.1                   927.30                   1121.8                   1381.5                   1384.4                   1382.5                   1381.1                   896.01                   1090.4                   1353.0                   1356.2                   1354.5                   1353.2                   830.58                   1017.7                   1269.1                   1272.1                   1270.7                   1269.6                   810.17                   1012.2                   1286.4                   1288.7                   1287.0                   1285.8
22.000                   3.0000                   2.0000                   1.1000                   10000                    4000.0                   60.000                   1012.4                   1184.8                   1405.9                   1407.5                   1405.2                   1403.8                   1013.0                   1185.1                   1406.1                   1407.7                   1405.4                   1403.9                   1012.9                   1185.0                   1406.1                   1407.7                   1405.3                   1403.9                   1012.9                   1185.0                   1406.1                   1407.6                   1405.3                   1403.9                   1013.2                   1185.2                   1406.2                   1407.7                   1405.4                   1404.0                   1013.2                   1185.2                   1406.1                   1407.7                   1405.4                   1403.9                   1011.9                   1183.9                   1405.3                   1406.9                   1404.6                   1403.2                   976.50                   1151.4                   1383.3                   1385.4                   1383.3                   1381.9                   902.02                   1076.3                   1300.7                   1303.0                   1301.2                   1300.0                   881.52                   1077.6                   1319.7                   1321.2                   1319.1                   1317.7
22.000                   3.0000                   2.0000                   1.1000                   10000                    4000.0                   65.000                   1093.6                   1241.4                   1422.8                   1423.3                   1420.6                   1419.1                   1094.1                   1241.6                   1422.9                   1423.5                   1420.8                   1419.3                   1094.0                   1241.6                   1422.9                   1423.4                   1420.8                   1419.2                   1094.0                   1241.6                   1422.9                   1423.4                   1420.7                   1419.2                   1094.2                   1241.7                   1423.0                   1423.5                   1420.8                   1419.3                   1094.3                   1241.8                   1422.9                   1423.5                   1420.8                   1419.3                   1092.8                   1240.5                   1422.3                   1422.8                   1420.1                   1418.6                   1055.3                   1208.0                   1407.5                   1408.5                   1405.9                   1404.4                   977.48                   1132.7                   1333.1                   1334.7                   1332.6                   1331.3                   959.86                   1139.0                   1352.7                   1353.4                   1350.9                   1349.5
22.000                   3.0000                   2.0000                   1.1000                   10000                    4000.0                   70.000                   1163.4                   1288.2                   1441.4                   1441.6                   1438.8                   1437.2                   1163.8                   1288.3                   1441.6                   1441.8                   1439.0                   1437.4                   1163.8                   1288.4                   1441.6                   1441.8                   1439.0                   1437.4                   1163.8                   1288.3                   1441.6                   1441.8                   1438.9                   1437.4                   1164.0                   1288.5                   1441.7                   1441.9                   1439.1                   1437.5                   1164.0                   1288.5                   1441.6                   1441.9                   1439.0                   1437.4                   1162.5                   1287.2                   1440.6                   1440.8                   1438.0                   1436.4                   1124.8                   1255.7                   1423.3                   1423.5                   1420.7                   1419.1                   1048.9                   1184.1                   1362.3                   1363.1                   1360.6                   1359.2                   1035.8                   1193.0                   1379.5                   1379.3                   1376.4                   1374.9
22.000                   3.0000                   2.0000                   1.1000                   10000                    4000.0                   75.000                   1228.2                   1330.9                   1463.1                   1463.2                   1460.2                   1458.5                   1228.5                   1330.9                   1463.3                   1463.4                   1460.4                   1458.8                   1228.6                   1331.0                   1463.3                   1463.4                   1460.4                   1458.7                   1228.5                   1331.0                   1463.3                   1463.4                   1460.4                   1458.7                   1228.7                   1331.1                   1463.4                   1463.5                   1460.5                   1458.8                   1228.7                   1331.2                   1463.4                   1463.4                   1460.4                   1458.8                   1227.1                   1329.8                   1462.0                   1462.0                   1459.0                   1457.3                   1189.9                   1299.6                   1438.1                   1437.8                   1434.8                   1433.2                   1117.5                   1233.0                   1388.9                   1388.9                   1386.1                   1384.5                   1109.2                   1243.5                   1403.3                   1402.3                   1399.1                   1397.5