% Model:              batchmodel_COIL_N_22_COIL_kr_3_COIL_kh_1_COIL_kturn_1.1_FUNZ_freq_6000_FUNZ_I_eff_1000.mph
% Version:            COMSOL 5.6.0.280
% Date:               Feb 3 2022, 01:54
% Table:              Tabella 1 - GRIGLIA_T
% COIL_N                 COIL_kr                  COIL_kh                  COIL_kturn               FUNZ_freq                FUNZ_I_eff               Time (s)                 Temperatura (degC), Punto: (0, 0)Temperatura (degC), Punto: (15, 0)Temperatura (degC), Punto: (27.483, 0)Temperatura (degC), Punto: (28.742, 0)Temperatura (degC), Punto: (29.497, 0)Temperatura (degC), Punto: (29.748, 0)Temperatura (degC), Punto: (0, 62.5)Temperatura (degC), Punto: (15, 62.5)Temperatura (degC), Punto: (27.483, 62.5)Temperatura (degC), Punto: (28.742, 62.5)Temperatura (degC), Punto: (29.497, 62.5)Temperatura (degC), Punto: (29.748, 62.5)Temperatura (degC), Punto: (0, 125)Temperatura (degC), Punto: (15, 125)Temperatura (degC), Punto: (27.483, 125)Temperatura (degC), Punto: (28.742, 125)Temperatura (degC), Punto: (29.497, 125)Temperatura (degC), Punto: (29.748, 125)Temperatura (degC), Punto: (0, 187.5)Temperatura (degC), Punto: (15, 187.5)Temperatura (degC), Punto: (27.483, 187.5)Temperatura (degC), Punto: (28.742, 187.5)Temperatura (degC), Punto: (29.497, 187.5)Temperatura (degC), Punto: (29.748, 187.5)Temperatura (degC), Punto: (0, 250)Temperatura (degC), Punto: (15, 250)Temperatura (degC), Punto: (27.483, 250)Temperatura (degC), Punto: (28.742, 250)Temperatura (degC), Punto: (29.497, 250)Temperatura (degC), Punto: (29.748, 250)Temperatura (degC), Punto: (0, 312.5)Temperatura (degC), Punto: (15, 312.5)Temperatura (degC), Punto: (27.483, 312.5)Temperatura (degC), Punto: (28.742, 312.5)Temperatura (degC), Punto: (29.497, 312.5)Temperatura (degC), Punto: (29.748, 312.5)Temperatura (degC), Punto: (0, 375)Temperatura (degC), Punto: (15, 375)Temperatura (degC), Punto: (27.483, 375)Temperatura (degC), Punto: (28.742, 375)Temperatura (degC), Punto: (29.497, 375)Temperatura (degC), Punto: (29.748, 375)Temperatura (degC), Punto: (0, 437.5)Temperatura (degC), Punto: (15, 437.5)Temperatura (degC), Punto: (27.483, 437.5)Temperatura (degC), Punto: (28.742, 437.5)Temperatura (degC), Punto: (29.497, 437.5)Temperatura (degC), Punto: (29.748, 437.5)Temperatura (degC), Punto: (0, 468.75)Temperatura (degC), Punto: (15, 468.75)Temperatura (degC), Punto: (27.483, 468.75)Temperatura (degC), Punto: (28.742, 468.75)Temperatura (degC), Punto: (29.497, 468.75)Temperatura (degC), Punto: (29.748, 468.75)Temperatura (degC), Punto: (0, 492.19)Temperatura (degC), Punto: (15, 492.19)Temperatura (degC), Punto: (27.483, 492.19)Temperatura (degC), Punto: (28.742, 492.19)Temperatura (degC), Punto: (29.497, 492.19)Temperatura (degC), Punto: (29.748, 492.19)
22.000                   3.0000                   1.0000                   1.1000                   6000.0                   1000.0                   0.0000                   20.000                   20.000                   20.000                   20.000                   20.048                   20.156                   20.000                   20.000                   20.000                   20.000                   20.048                   20.156                   20.000                   20.000                   20.000                   20.000                   20.048                   20.156                   20.000                   20.000                   20.000                   20.000                   20.045                   20.150                   20.000                   20.000                   20.000                   20.000                   20.018                   20.089                   20.000                   20.000                   20.000                   20.000                   20.001                   20.017                   20.000                   20.000                   20.000                   20.000                   20.000                   20.003                   20.000                   20.000                   20.000                   20.000                   20.000                   20.001                   20.000                   20.000                   20.000                   20.000                   20.000                   20.000                   20.000                   20.000                   20.000                   20.000                   20.000                   20.000
22.000                   3.0000                   1.0000                   1.1000                   6000.0                   1000.0                   5.0000                   26.025                   46.447                   153.47                   173.77                   186.52                   189.76                   25.941                   46.232                   153.32                   173.34                   185.81                   189.09                   25.924                   46.282                   153.33                   172.76                   185.01                   188.17                   25.294                   43.757                   143.73                   161.66                   172.56                   175.51                   23.135                   34.001                   93.403                   104.07                   110.56                   112.36                   20.824                   23.720                   40.257                   43.584                   45.180                   45.620                   20.234                   21.503                   32.464                   34.319                   34.744                   34.908                   20.080                   20.397                   22.424                   22.866                   23.017                   23.042                   20.032                   20.217                   22.088                   22.539                   22.761                   22.798                   20.027                   20.118                   20.710                   20.878                   21.007                   21.027
22.000                   3.0000                   1.0000                   1.1000                   6000.0                   1000.0                   10.000                   61.437                   107.23                   257.18                   281.43                   296.30                   299.93                   61.432                   107.66                   262.26                   286.94                   301.94                   305.76                   61.724                   108.46                   263.52                   287.79                   302.53                   306.11                   58.020                   101.24                   246.54                   269.15                   282.81                   286.20                   42.424                   67.733                   150.75                   162.27                   168.79                   170.56                   26.463                   33.822                   58.810                   62.962                   64.684                   65.153                   23.712                   29.571                   53.944                   57.221                   57.667                   57.751                   20.846                   22.017                   27.087                   28.152                   28.736                   28.908                   20.664                   21.740                   26.815                   27.729                   28.220                   28.306                   20.371                   20.813                   22.553                   22.969                   23.308                   23.358
22.000                   3.0000                   1.0000                   1.1000                   6000.0                   1000.0                   15.000                   117.92                   177.81                   354.44                   382.48                   399.32                   403.24                   118.68                   179.82                   364.63                   393.79                   411.13                   415.27                   119.31                   180.91                   365.17                   393.86                   411.03                   414.96                   111.26                   168.46                   339.53                   366.21                   382.12                   385.80                   74.662                   108.05                   202.62                   215.35                   222.58                   224.55                   36.445                   46.171                   72.587                   76.343                   78.109                   78.609                   30.489                   38.937                   64.482                   67.289                   67.848                   67.954                   22.482                   24.270                   30.125                   31.176                   31.762                   31.933                   22.054                   23.703                   28.985                   29.707                   30.078                   30.153                   21.234                   21.970                   24.031                   24.414                   24.711                   24.759
22.000                   3.0000                   1.0000                   1.1000                   6000.0                   1000.0                   20.000                   183.65                   252.00                   454.13                   487.37                   506.85                   511.13                   185.31                   254.85                   460.54                   494.09                   513.71                   518.02                   185.95                   255.58                   460.41                   493.70                   513.16                   517.45                   173.17                   237.72                   424.53                   454.40                   472.11                   476.12                   113.09                   150.08                   247.41                   261.52                   270.33                   272.67                   48.409                   58.387                   81.123                   83.931                   85.675                   86.224                   37.105                   43.926                   56.695                   57.636                   58.134                   58.287                   24.302                   25.840                   28.731                   28.958                   29.082                   29.124                   23.482                   24.809                   27.157                   27.314                   27.390                   27.413                   22.273                   22.949                   24.068                   24.146                   24.182                   24.195
22.000                   3.0000                   1.0000                   1.1000                   6000.0                   1000.0                   25.000                   249.99                   324.85                   548.45                   586.16                   607.40                   611.90                   252.15                   327.83                   552.89                   590.35                   611.82                   616.39                   252.42                   327.93                   551.80                   589.03                   610.27                   614.82                   235.27                   305.08                   507.84                   540.55                   559.53                   563.73                   153.11                   192.72                   296.72                   312.04                   321.79                   324.31                   60.948                   70.814                   92.805                   95.586                   97.349                   97.851                   42.093                   47.428                   58.022                   59.017                   59.597                   59.795                   25.809                   26.978                   28.881                   29.031                   29.130                   29.169                   24.501                   25.442                   26.894                   27.010                   27.080                   27.105                   23.150                   23.681                   24.491                   24.562                   24.603                   24.620
22.000                   3.0000                   1.0000                   1.1000                   6000.0                   1000.0                   30.000                   315.53                   395.98                   638.68                   681.03                   703.92                   708.62                   317.93                   398.81                   641.12                   682.51                   705.90                   710.72                   317.73                   398.26                   639.00                   680.12                   703.16                   707.95                   296.51                   370.90                   588.41                   623.90                   644.02                   648.35                   193.65                   235.66                   346.55                   363.06                   373.64                   376.31                   73.804                   83.629                   105.56                   108.39                   110.16                   110.62                   46.541                   51.140                   62.140                   63.358                   64.119                   64.382                   27.153                   28.043                   29.474                   29.606                   29.697                   29.734                   25.333                   26.016                   27.181                   27.309                   27.390                   27.419                   23.923                   24.340                   25.019                   25.105                   25.163                   25.186
22.000                   3.0000                   1.0000                   1.1000                   6000.0                   1000.0                   35.000                   377.29                   461.23                   716.40                   764.63                   789.35                   794.22                   379.64                   463.62                   715.85                   762.13                   787.39                   792.41                   378.96                   462.48                   712.25                   757.87                   782.65                   787.63                   354.64                   431.93                   657.70                   695.10                   716.00                   720.42                   234.04                   278.29                   396.01                   413.53                   424.74                   427.49                   87.178                   97.100                   119.52                   122.44                   124.26                   124.70                   50.999                   55.585                   68.487                   69.994                   70.897                   71.221                   28.416                   29.160                   30.477                   30.620                   30.719                   30.758                   26.035                   26.567                   27.571                   27.694                   27.770                   27.799                   24.608                   24.957                   25.583                   25.668                   25.725                   25.746
22.000                   3.0000                   1.0000                   1.1000                   6000.0                   1000.0                   40.000                   437.18                   523.82                   791.99                   845.92                   872.12                   877.06                   439.36                   525.65                   788.11                   839.15                   865.89                   871.00                   438.20                   523.95                   782.80                   832.80                   858.97                   864.04                   411.13                   490.70                   723.67                   763.31                   785.01                   789.50                   274.24                   320.67                   445.21                   463.72                   475.48                   478.29                   100.80                   110.88                   133.99                   137.02                   138.90                   139.33                   55.551                   60.388                   75.630                   77.427                   78.445                   78.822                   29.661                   30.307                   31.616                   31.777                   31.887                   31.929                   26.709                   27.140                   28.071                   28.189                   28.262                   28.289                   25.272                   25.575                   26.186                   26.269                   26.323                   26.341
22.000                   3.0000                   1.0000                   1.1000                   6000.0                   1000.0                   45.000                   491.04                   578.65                   873.36                   929.85                   955.03                   959.53                   492.83                   579.65                   865.41                   918.99                   944.87                   949.54                   491.24                   577.53                   857.84                   910.37                   935.80                   940.47                   462.05                   542.53                   786.09                   831.37                   854.45                   858.99                   313.52                   362.04                   493.43                   512.94                   525.08                   527.92                   115.18                   125.63                   149.89                   153.03                   154.94                   155.43                   60.680                   66.325                   84.366                   86.359                   87.385                   87.759                   30.911                   31.565                   32.987                   33.161                   33.277                   33.320                   27.398                   27.884                   29.096                   29.250                   29.341                   29.374                   25.930                   26.262                   26.984                   27.079                   27.139                   27.159
22.000                   3.0000                   1.0000                   1.1000                   6000.0                   1000.0                   50.000                   543.55                   631.23                   957.18                   1012.1                   1035.6                   1039.3                   544.89                   631.32                   942.75                   996.54                   1021.0                   1025.0                   542.89                   628.87                   937.43                   991.60                   1016.6                   1020.7                   511.77                   592.62                   857.93                   912.13                   939.26                   944.08                   352.53                   403.19                   542.95                   564.62                   577.53                   580.44                   129.73                   140.60                   166.40                   169.88                   172.06                   172.75                   65.744                   71.479                   84.108                   85.216                   85.793                   85.969                   32.166                   32.837                   34.365                   34.559                   34.678                   34.719                   28.079                   28.595                   29.731                   29.850                   29.917                   29.938                   26.579                   26.924                   27.590                   27.653                   27.687                   27.698
22.000                   3.0000                   1.0000                   1.1000                   6000.0                   1000.0                   55.000                   590.58                   677.52                   1057.4                   1097.7                   1107.4                   1107.9                   591.21                   674.76                   965.13                   1002.8                   1019.6                   1022.2                   589.06                   672.58                   957.57                   992.23                   1007.8                   1010.4                   557.24                   637.31                   927.04                   977.88                   1002.0                   1006.1                   390.29                   442.80                   587.74                   609.90                   622.96                   625.85                   144.86                   156.14                   182.84                   186.41                   188.62                   189.32                   69.923                   74.198                   82.049                   82.829                   83.287                   83.436                   33.470                   34.138                   35.637                   35.829                   35.948                   35.987                   28.740                   29.187                   30.092                   30.196                   30.259                   30.279                   27.182                   27.482                   28.023                   28.078                   28.110                   28.121
22.000                   3.0000                   1.0000                   1.1000                   6000.0                   1000.0                   60.000                   631.10                   717.43                   1096.7                   1126.5                   1131.3                   1131.0                   630.76                   710.33                   977.93                   1006.2                   1018.6                   1020.5                   628.77                   708.72                   971.66                   996.20                   1006.8                   1008.5                   597.91                   676.74                   972.72                   1015.5                   1034.1                   1037.0                   425.89                   479.42                   625.96                   648.40                   661.54                   664.39                   160.28                   171.84                   199.12                   202.75                   205.00                   205.71                   73.439                   76.782                   82.883                   83.583                   84.015                   84.160                   34.799                   35.454                   36.923                   37.112                   37.229                   37.268                   29.386                   29.777                   30.582                   30.681                   30.742                   30.762                   27.738                   28.000                   28.478                   28.530                   28.561                   28.572
22.000                   3.0000                   1.0000                   1.1000                   6000.0                   1000.0                   65.000                   666.83                   752.70                   1093.7                   1112.4                   1115.8                   1115.4                   665.42                   740.68                   991.70                   1015.2                   1025.1                   1026.5                   663.74                   739.58                   985.29                   1006.0                   1014.6                   1015.9                   634.98                   712.25                   1004.2                   1036.4                   1047.9                   1049.3                   459.80                   513.78                   660.26                   682.98                   696.23                   699.05                   175.84                   187.65                   215.45                   219.16                   221.47                   222.18                   76.644                   79.463                   85.282                   86.005                   86.451                   86.600                   36.141                   36.781                   38.230                   38.417                   38.534                   38.573                   30.027                   30.382                   31.153                   31.251                   31.312                   31.332                   28.268                   28.500                   28.951                   29.002                   29.033                   29.044
22.000                   3.0000                   1.0000                   1.1000                   6000.0                   1000.0                   70.000                   696.43                   786.43                   1089.8                   1104.4                   1107.0                   1106.5                   694.21                   769.77                   1008.5                   1028.5                   1036.0                   1036.8                   692.92                   768.60                   1001.4                   1019.7                   1026.8                   1027.6                   667.43                   743.94                   1031.9                   1056.9                   1064.2                   1064.7                   491.58                   545.36                   690.30                   712.97                   726.23                   729.03                   191.42                   203.42                   231.76                   235.54                   237.90                   238.62                   79.919                   82.498                   88.177                   88.905                   89.355                   89.505                   37.486                   38.116                   39.551                   39.738                   39.853                   39.892                   30.688                   31.023                   31.775                   31.872                   31.932                   31.953                   28.792                   29.008                   29.442                   29.493                   29.524                   29.534
22.000                   3.0000                   1.0000                   1.1000                   6000.0                   1000.0                   75.000                   720.01                   819.51                   1089.2                   1101.1                   1102.8                   1102.2                   717.17                   799.73                   1025.9                   1043.0                   1048.4                   1048.8                   716.21                   798.33                   1018.1                   1034.2                   1039.8                   1040.2                   695.34                   775.66                   1053.0                   1072.2                   1076.7                   1076.6                   521.50                   574.52                   716.71                   739.22                   752.48                   755.25                   206.92                   219.12                   247.96                   251.82                   254.21                   254.95                   83.334                   85.802                   91.414                   92.145                   92.596                   92.746                   38.833                   39.456                   40.880                   41.066                   41.181                   41.219                   31.370                   31.694                   32.434                   32.530                   32.590                   32.610                   29.322                   29.528                   29.952                   30.002                   30.033                   30.043