% Model:              batchmodel_COIL_N_22_COIL_kr_3_COIL_kh_2_COIL_kturn_1.1_FUNZ_freq_2000_FUNZ_I_eff_4000.mph
% Version:            COMSOL 5.6.0.280
% Date:               Feb 3 2022, 04:57
% Table:              Tabella 1 - GRIGLIA_T
% COIL_N                 COIL_kr                  COIL_kh                  COIL_kturn               FUNZ_freq                FUNZ_I_eff               Time (s)                 Temperatura (degC), Punto: (0, 0)Temperatura (degC), Punto: (15, 0)Temperatura (degC), Punto: (25.641, 0)Temperatura (degC), Punto: (27.821, 0)Temperatura (degC), Punto: (29.128, 0)Temperatura (degC), Punto: (29.564, 0)Temperatura (degC), Punto: (0, 62.5)Temperatura (degC), Punto: (15, 62.5)Temperatura (degC), Punto: (25.641, 62.5)Temperatura (degC), Punto: (27.821, 62.5)Temperatura (degC), Punto: (29.128, 62.5)Temperatura (degC), Punto: (29.564, 62.5)Temperatura (degC), Punto: (0, 125)Temperatura (degC), Punto: (15, 125)Temperatura (degC), Punto: (25.641, 125)Temperatura (degC), Punto: (27.821, 125)Temperatura (degC), Punto: (29.128, 125)Temperatura (degC), Punto: (29.564, 125)Temperatura (degC), Punto: (0, 187.5)Temperatura (degC), Punto: (15, 187.5)Temperatura (degC), Punto: (25.641, 187.5)Temperatura (degC), Punto: (27.821, 187.5)Temperatura (degC), Punto: (29.128, 187.5)Temperatura (degC), Punto: (29.564, 187.5)Temperatura (degC), Punto: (0, 250)Temperatura (degC), Punto: (15, 250)Temperatura (degC), Punto: (25.641, 250)Temperatura (degC), Punto: (27.821, 250)Temperatura (degC), Punto: (29.128, 250)Temperatura (degC), Punto: (29.564, 250)Temperatura (degC), Punto: (0, 312.5)Temperatura (degC), Punto: (15, 312.5)Temperatura (degC), Punto: (25.641, 312.5)Temperatura (degC), Punto: (27.821, 312.5)Temperatura (degC), Punto: (29.128, 312.5)Temperatura (degC), Punto: (29.564, 312.5)Temperatura (degC), Punto: (0, 375)Temperatura (degC), Punto: (15, 375)Temperatura (degC), Punto: (25.641, 375)Temperatura (degC), Punto: (27.821, 375)Temperatura (degC), Punto: (29.128, 375)Temperatura (degC), Punto: (29.564, 375)Temperatura (degC), Punto: (0, 437.5)Temperatura (degC), Punto: (15, 437.5)Temperatura (degC), Punto: (25.641, 437.5)Temperatura (degC), Punto: (27.821, 437.5)Temperatura (degC), Punto: (29.128, 437.5)Temperatura (degC), Punto: (29.564, 437.5)Temperatura (degC), Punto: (0, 468.75)Temperatura (degC), Punto: (15, 468.75)Temperatura (degC), Punto: (25.641, 468.75)Temperatura (degC), Punto: (27.821, 468.75)Temperatura (degC), Punto: (29.128, 468.75)Temperatura (degC), Punto: (29.564, 468.75)Temperatura (degC), Punto: (0, 492.19)Temperatura (degC), Punto: (15, 492.19)Temperatura (degC), Punto: (25.641, 492.19)Temperatura (degC), Punto: (27.821, 492.19)Temperatura (degC), Punto: (29.128, 492.19)Temperatura (degC), Punto: (29.564, 492.19)
22.000                   3.0000                   2.0000                   1.1000                   2000.0                   4000.0                   0.0000                   20.000                   20.000                   20.000                   20.000                   20.079                   20.160                   20.000                   20.000                   20.000                   20.000                   20.079                   20.160                   20.000                   20.000                   20.000                   20.000                   20.079                   20.160                   20.000                   20.000                   20.000                   20.000                   20.079                   20.160                   20.000                   20.000                   20.000                   20.000                   20.079                   20.160                   20.000                   20.000                   20.000                   20.000                   20.079                   20.160                   20.000                   20.000                   20.000                   20.000                   20.079                   20.159                   20.000                   20.000                   20.000                   20.000                   20.074                   20.151                   20.000                   20.000                   20.000                   20.000                   20.058                   20.127                   20.000                   20.000                   20.000                   20.000                   20.031                   20.081
22.000                   3.0000                   2.0000                   1.1000                   2000.0                   4000.0                   5.0000                   30.061                   69.889                   233.82                   300.73                   342.06                   350.97                   30.011                   69.642                   233.16                   300.11                   341.48                   350.39                   29.984                   69.472                   232.55                   299.33                   340.68                   349.60                   29.993                   69.582                   233.15                   300.16                   341.56                   350.45                   29.979                   69.510                   233.00                   300.03                   341.46                   350.37                   30.103                   70.158                   235.10                   302.40                   343.88                   352.78                   29.564                   67.775                   227.35                   293.09                   333.85                   342.68                   28.231                   62.019                   204.22                   262.20                   299.00                   307.11                   26.529                   54.016                   169.49                   214.65                   243.97                   250.75                   29.526                   48.735                   122.25                   148.94                   166.84                   171.42
22.000                   3.0000                   2.0000                   1.1000                   2000.0                   4000.0                   10.000                   96.834                   186.72                   444.73                   542.44                   594.93                   605.05                   96.675                   186.51                   444.68                   542.30                   594.66                   604.77                   96.577                   186.27                   443.63                   540.88                   593.34                   603.49                   96.637                   186.45                   444.42                   542.11                   594.60                   604.72                   96.626                   186.45                   444.75                   542.79                   595.28                   605.38                   97.082                   187.19                   445.31                   542.98                   595.41                   605.53                   94.879                   183.40                   438.11                   534.39                   586.92                   597.12                   87.055                   167.79                   397.40                   482.75                   529.75                   539.09                   74.739                   140.30                   318.13                   381.07                   418.56                   426.41                   67.664                   114.05                   225.01                   259.71                   281.58                   286.73
22.000                   3.0000                   2.0000                   1.1000                   2000.0                   4000.0                   15.000                   194.87                   313.64                   634.52                   757.62                   825.89                   838.34                   194.73                   313.67                   636.19                   760.49                   829.01                   841.45                   194.58                   313.30                   634.39                   757.39                   825.73                   838.20                   194.64                   313.38                   634.09                   756.92                   825.13                   837.58                   194.66                   313.48                   635.25                   759.11                   827.34                   839.72                   195.15                   313.91                   634.56                   757.63                   825.85                   838.29                   192.01                   309.85                   628.60                   749.32                   816.59                   828.95                   176.86                   285.82                   574.07                   676.82                   730.31                   740.53                   149.93                   238.52                   462.93                   540.41                   582.99                   591.43                   129.38                   192.70                   330.68                   372.04                   396.97                   402.50
22.000                   3.0000                   2.0000                   1.1000                   2000.0                   4000.0                   20.000                   301.60                   435.02                   808.07                   968.48                   1033.4                   1043.1                   301.54                   435.21                   810.50                   971.59                   1036.4                   1046.0                   301.35                   434.77                   807.93                   968.40                   1033.3                   1043.0                   301.35                   434.71                   807.67                   968.19                   1033.2                   1042.9                   301.41                   434.88                   809.06                   969.97                   1034.9                   1044.6                   301.75                   435.07                   808.53                   969.27                   1034.2                   1043.9                   298.32                   431.09                   801.65                   962.51                   1028.3                   1038.2                   276.79                   399.58                   715.20                   842.05                   907.03                   918.15                   236.18                   337.43                   588.56                   673.77                   718.65                   727.14                   201.08                   273.69                   427.09                   472.70                   498.77                   504.25
22.000                   3.0000                   2.0000                   1.1000                   2000.0                   4000.0                   25.000                   403.42                   542.37                   960.18                   1078.7                   1109.3                   1111.9                   403.44                   542.87                   967.82                   1085.8                   1115.3                   1117.7                   403.21                   542.20                   960.64                   1079.3                   1109.8                   1112.4                   403.13                   542.06                   961.47                   1080.4                   1110.8                   1113.4                   403.23                   542.40                   964.94                   1083.4                   1113.4                   1115.9                   403.43                   542.46                   963.88                   1082.4                   1112.5                   1115.0                   400.12                   539.18                   963.35                   1083.9                   1114.5                   1117.1                   372.98                   499.57                   827.71                   954.43                   1007.0                   1015.0                   321.77                   427.49                   672.89                   752.13                   794.28                   802.15                   275.46                   351.57                   504.86                   547.20                   570.58                   575.37
22.000                   3.0000                   2.0000                   1.1000                   2000.0                   4000.0                   30.000                   494.28                   632.31                   1042.8                   1109.9                   1123.0                   1123.2                   494.40                   633.29                   1050.9                   1116.4                   1128.9                   1129.0                   494.11                   632.19                   1043.4                   1110.5                   1123.6                   1123.8                   493.97                   632.07                   1044.6                   1111.6                   1124.7                   1124.8                   494.13                   632.65                   1048.0                   1114.2                   1127.0                   1127.1                   494.23                   632.65                   1047.0                   1113.4                   1126.2                   1126.3                   491.42                   630.49                   1046.2                   1112.7                   1125.5                   1125.6                   459.10                   583.09                   920.22                   1024.1                   1059.9                   1064.5                   400.45                   503.62                   732.61                   810.53                   851.49                   858.71                   346.69                   421.66                   566.55                   605.40                   626.79                   631.12
22.000                   3.0000                   2.0000                   1.1000                   2000.0                   4000.0                   35.000                   573.16                   705.07                   1080.4                   1120.1                   1126.4                   1125.6                   573.40                   706.45                   1086.2                   1124.9                   1130.8                   1130.0                   573.00                   704.98                   1080.9                   1120.6                   1126.8                   1126.1                   572.84                   704.91                   1081.7                   1121.3                   1127.5                   1126.8                   573.08                   705.70                   1084.1                   1123.2                   1129.3                   1128.5                   573.14                   705.67                   1083.6                   1122.8                   1128.9                   1128.1                   571.05                   704.31                   1079.6                   1118.9                   1125.1                   1124.4                   533.89                   653.59                   1027.8                   1102.8                   1119.9                   1120.7                   468.99                   566.15                   782.37                   859.83                   897.54                   903.93                   411.20                   482.29                   617.10                   653.36                   673.39                   677.36
22.000                   3.0000                   2.0000                   1.1000                   2000.0                   4000.0                   40.000                   639.05                   766.18                   1101.4                   1126.9                   1129.5                   1128.3                   639.37                   768.04                   1105.1                   1130.0                   1132.4                   1131.1                   638.91                   766.09                   1101.7                   1127.2                   1129.8                   1128.6                   638.74                   766.04                   1102.1                   1127.6                   1130.2                   1128.9                   639.04                   767.10                   1103.7                   1128.9                   1131.3                   1130.1                   639.08                   767.09                   1103.5                   1128.7                   1131.2                   1129.9                   637.79                   765.70                   1098.7                   1124.2                   1126.9                   1125.7                   598.79                   716.86                   1108.5                   1150.2                   1156.7                   1155.8                   527.71                   617.42                   826.69                   899.05                   932.90                   938.41                   467.64                   534.40                   659.50                   693.61                   712.44                   716.12
22.000                   3.0000                   2.0000                   1.1000                   2000.0                   4000.0                   45.000                   691.05                   828.78                   1116.1                   1132.9                   1133.2                   1131.7                   691.41                   830.94                   1118.1                   1134.6                   1134.8                   1133.2                   690.94                   828.69                   1116.2                   1133.0                   1133.4                   1131.8                   690.79                   828.58                   1116.3                   1133.2                   1133.5                   1131.9                   691.11                   829.88                   1117.3                   1133.9                   1134.2                   1132.6                   691.15                   829.93                   1117.3                   1133.9                   1134.2                   1132.6                   690.46                   827.98                   1113.4                   1130.4                   1130.8                   1129.2                   654.16                   780.72                   1146.3                   1169.9                   1171.4                   1169.8                   578.03                   660.20                   863.38                   928.65                   958.40                   963.10                   516.98                   579.24                   694.62                   726.06                   743.66                   747.07
22.000                   3.0000                   2.0000                   1.1000                   2000.0                   4000.0                   50.000                   730.87                   890.26                   1127.7                   1138.6                   1137.4                   1135.6                   731.25                   892.04                   1128.7                   1139.5                   1138.2                   1136.4                   730.79                   890.09                   1127.7                   1138.7                   1137.5                   1135.7                   730.65                   889.92                   1127.7                   1138.7                   1137.5                   1135.7                   730.98                   891.12                   1128.3                   1139.1                   1137.9                   1136.1                   731.02                   891.25                   1128.3                   1139.2                   1137.9                   1136.1                   730.71                   889.09                   1125.6                   1136.8                   1135.6                   1133.9                   699.87                   853.45                   1163.1                   1176.7                   1175.6                   1173.6                   620.99                   696.53                   894.81                   952.16                   977.92                   981.86                   560.46                   617.78                   723.47                   752.76                   769.60                   772.82
22.000                   3.0000                   2.0000                   1.1000                   2000.0                   4000.0                   55.000                   764.11                   947.03                   1137.7                   1144.6                   1142.3                   1140.3                   764.59                   948.25                   1138.2                   1145.0                   1142.6                   1140.7                   764.04                   946.84                   1137.7                   1144.6                   1142.3                   1140.3                   763.84                   946.61                   1137.6                   1144.5                   1142.2                   1140.2                   764.30                   947.56                   1138.0                   1144.8                   1142.5                   1140.5                   764.33                   947.72                   1138.0                   1144.9                   1142.5                   1140.5                   764.17                   945.87                   1136.3                   1143.3                   1141.0                   1139.0                   735.25                   926.48                   1170.5                   1178.6                   1176.0                   1173.9                   657.62                   727.94                   925.15                   974.70                   996.54                   999.73                   598.57                   650.87                   747.70                   776.48                   792.99                   796.06
22.000                   3.0000                   2.0000                   1.1000                   2000.0                   4000.0                   60.000                   813.63                   997.68                   1147.2                   1151.0                   1147.8                   1145.7                   814.19                   998.44                   1147.3                   1151.1                   1147.9                   1145.8                   813.49                   997.49                   1147.1                   1151.0                   1147.8                   1145.7                   813.22                   997.24                   1147.0                   1150.9                   1147.7                   1145.6                   813.80                   997.95                   1147.2                   1151.1                   1147.9                   1145.7                   813.90                   998.12                   1147.3                   1151.1                   1147.9                   1145.8                   813.87                   996.74                   1146.2                   1150.1                   1147.0                   1144.9                   779.07                   987.06                   1174.9                   1179.1                   1175.6                   1173.4                   688.64                   759.22                   959.72                   1003.3                   1020.6                   1022.8                   631.65                   679.15                   770.06                   798.60                   814.54                   817.41
22.000                   3.0000                   2.0000                   1.1000                   2000.0                   4000.0                   65.000                   874.30                   1042.2                   1156.3                   1158.1                   1154.2                   1152.0                   874.89                   1042.6                   1156.3                   1158.1                   1154.3                   1152.0                   874.08                   1042.1                   1156.2                   1158.0                   1154.2                   1152.0                   873.76                   1041.8                   1156.2                   1157.9                   1154.1                   1151.9                   874.42                   1042.3                   1156.3                   1158.0                   1154.2                   1152.0                   874.58                   1042.4                   1156.3                   1158.1                   1154.3                   1152.0                   874.69                   1041.7                   1155.7                   1157.5                   1153.7                   1151.5                   831.88                   1037.1                   1176.8                   1178.9                   1174.9                   1172.5                   714.37                   791.77                   997.23                   1035.4                   1047.8                   1048.9                   659.90                   702.77                   790.59                   818.97                   834.16                   836.81
22.000                   3.0000                   2.0000                   1.1000                   2000.0                   4000.0                   70.000                   942.44                   1080.1                   1166.1                   1166.3                   1161.9                   1159.6                   942.86                   1080.3                   1166.1                   1166.3                   1161.9                   1159.6                   942.20                   1080.0                   1166.1                   1166.2                   1161.9                   1159.6                   941.86                   1079.8                   1166.0                   1166.2                   1161.8                   1159.5                   942.43                   1080.1                   1166.1                   1166.2                   1161.9                   1159.6                   942.61                   1080.2                   1166.1                   1166.2                   1161.9                   1159.6                   942.96                   1079.9                   1165.8                   1165.9                   1161.6                   1159.3                   901.46                   1076.2                   1180.4                   1180.8                   1176.3                   1173.9                   735.85                   830.49                   1036.7                   1067.6                   1075.4                   1075.4                   683.92                   722.30                   810.49                   837.76                   852.03                   854.46
22.000                   3.0000                   2.0000                   1.1000                   2000.0                   4000.0                   75.000                   1006.3                   1112.6                   1177.3                   1176.0                   1171.2                   1168.8                   1006.6                   1112.6                   1177.2                   1176.0                   1171.2                   1168.8                   1006.1                   1112.5                   1177.2                   1176.0                   1171.2                   1168.8                   1005.8                   1112.3                   1177.1                   1175.9                   1171.1                   1168.7                   1006.3                   1112.5                   1177.2                   1176.0                   1171.2                   1168.8                   1006.4                   1112.5                   1177.2                   1176.0                   1171.2                   1168.8                   1007.0                   1112.6                   1177.1                   1175.9                   1171.1                   1168.6                   969.69                   1107.8                   1185.7                   1184.8                   1179.9                   1177.5                   759.17                   872.30                   1070.9                   1094.5                   1098.5                   1097.7                   703.80                   739.25                   829.41                   855.24                   868.52                   870.72