% Model:              batchmodel_COIL_N_22_COIL_kr_3_COIL_kh_3_COIL_kturn_1.7_FUNZ_freq_6000_FUNZ_I_eff_1000.mph
% Version:            COMSOL 5.6.0.280
% Date:               Feb 3 2022, 09:09
% Table:              Tabella 1 - GRIGLIA_T
% COIL_N                 COIL_kr                  COIL_kh                  COIL_kturn               FUNZ_freq                FUNZ_I_eff               Time (s)                 Temperatura (degC), Punto: (0, 0)Temperatura (degC), Punto: (15, 0)Temperatura (degC), Punto: (27.483, 0)Temperatura (degC), Punto: (28.742, 0)Temperatura (degC), Punto: (29.497, 0)Temperatura (degC), Punto: (29.748, 0)Temperatura (degC), Punto: (0, 62.5)Temperatura (degC), Punto: (15, 62.5)Temperatura (degC), Punto: (27.483, 62.5)Temperatura (degC), Punto: (28.742, 62.5)Temperatura (degC), Punto: (29.497, 62.5)Temperatura (degC), Punto: (29.748, 62.5)Temperatura (degC), Punto: (0, 125)Temperatura (degC), Punto: (15, 125)Temperatura (degC), Punto: (27.483, 125)Temperatura (degC), Punto: (28.742, 125)Temperatura (degC), Punto: (29.497, 125)Temperatura (degC), Punto: (29.748, 125)Temperatura (degC), Punto: (0, 187.5)Temperatura (degC), Punto: (15, 187.5)Temperatura (degC), Punto: (27.483, 187.5)Temperatura (degC), Punto: (28.742, 187.5)Temperatura (degC), Punto: (29.497, 187.5)Temperatura (degC), Punto: (29.748, 187.5)Temperatura (degC), Punto: (0, 250)Temperatura (degC), Punto: (15, 250)Temperatura (degC), Punto: (27.483, 250)Temperatura (degC), Punto: (28.742, 250)Temperatura (degC), Punto: (29.497, 250)Temperatura (degC), Punto: (29.748, 250)Temperatura (degC), Punto: (0, 312.5)Temperatura (degC), Punto: (15, 312.5)Temperatura (degC), Punto: (27.483, 312.5)Temperatura (degC), Punto: (28.742, 312.5)Temperatura (degC), Punto: (29.497, 312.5)Temperatura (degC), Punto: (29.748, 312.5)Temperatura (degC), Punto: (0, 375)Temperatura (degC), Punto: (15, 375)Temperatura (degC), Punto: (27.483, 375)Temperatura (degC), Punto: (28.742, 375)Temperatura (degC), Punto: (29.497, 375)Temperatura (degC), Punto: (29.748, 375)Temperatura (degC), Punto: (0, 437.5)Temperatura (degC), Punto: (15, 437.5)Temperatura (degC), Punto: (27.483, 437.5)Temperatura (degC), Punto: (28.742, 437.5)Temperatura (degC), Punto: (29.497, 437.5)Temperatura (degC), Punto: (29.748, 437.5)Temperatura (degC), Punto: (0, 468.75)Temperatura (degC), Punto: (15, 468.75)Temperatura (degC), Punto: (27.483, 468.75)Temperatura (degC), Punto: (28.742, 468.75)Temperatura (degC), Punto: (29.497, 468.75)Temperatura (degC), Punto: (29.748, 468.75)Temperatura (degC), Punto: (0, 492.19)Temperatura (degC), Punto: (15, 492.19)Temperatura (degC), Punto: (27.483, 492.19)Temperatura (degC), Punto: (28.742, 492.19)Temperatura (degC), Punto: (29.497, 492.19)Temperatura (degC), Punto: (29.748, 492.19)
22.000                   3.0000                   3.0000                   1.7000                   6000.0                   1000.0                   0.0000                   20.000                   20.000                   20.000                   20.000                   20.001                   20.015                   20.000                   20.000                   20.000                   20.000                   20.001                   20.015                   20.000                   20.000                   20.000                   20.000                   20.001                   20.015                   20.000                   20.000                   20.000                   20.000                   20.001                   20.015                   20.000                   20.000                   20.000                   20.000                   20.001                   20.015                   20.000                   20.000                   20.000                   20.000                   20.001                   20.015                   20.000                   20.000                   20.000                   20.000                   20.001                   20.015                   20.000                   20.000                   20.000                   20.000                   20.001                   20.015                   20.000                   20.000                   20.000                   20.000                   20.001                   20.015                   20.000                   20.000                   20.000                   20.000                   20.000                   20.011
22.000                   3.0000                   3.0000                   1.7000                   6000.0                   1000.0                   5.0000                   20.774                   22.930                   33.634                   35.486                   36.602                   36.976                   20.831                   23.166                   34.605                   36.583                   37.780                   38.175                   20.799                   23.020                   33.872                   35.760                   36.907                   37.291                   20.779                   22.932                   33.446                   35.299                   36.436                   36.821                   20.848                   23.212                   34.659                   36.622                   37.813                   38.207                   20.770                   22.918                   33.600                   35.471                   36.576                   36.942                   20.846                   23.229                   34.887                   36.895                   38.104                   38.498                   20.901                   23.458                   35.688                   37.656                   38.834                   39.200                   20.812                   23.014                   33.874                   35.788                   36.955                   37.345                   21.451                   24.282                   34.658                   36.339                   37.274                   37.565
22.000                   3.0000                   3.0000                   1.7000                   6000.0                   1000.0                   10.000                   24.910                   29.151                   42.180                   44.137                   45.377                   45.792                   25.122                   29.569                   43.140                   45.170                   46.454                   46.884                   25.018                   29.349                   42.599                   44.589                   45.848                   46.270                   24.952                   29.215                   42.291                   44.265                   45.515                   45.934                   25.182                   29.666                   43.286                   45.320                   46.608                   47.039                   24.912                   29.158                   42.209                   44.169                   45.410                   45.825                   25.157                   29.633                   43.231                   45.254                   46.533                   46.961                   25.298                   29.891                   43.619                   45.641                   46.919                   47.347                   25.109                   29.436                   42.731                   44.734                   46.004                   46.429                   25.871                   30.235                   41.636                   43.185                   44.153                   44.477
22.000                   3.0000                   3.0000                   1.7000                   6000.0                   1000.0                   15.000                   30.689                   36.038                   50.279                   52.300                   53.570                   53.992                   31.020                   36.556                   51.271                   53.357                   54.667                   55.103                   30.865                   36.304                   50.773                   52.825                   54.117                   54.546                   30.767                   36.153                   50.502                   52.541                   53.822                   54.248                   31.111                   36.680                   51.457                   53.550                   54.866                   55.303                   30.701                   36.056                   50.298                   52.316                   53.586                   54.009                   31.067                   36.614                   51.313                   53.391                   54.697                   55.132                   31.229                   36.833                   51.597                   53.681                   54.991                   55.428                   30.950                   36.342                   50.747                   52.802                   54.097                   54.528                   31.320                   36.274                   48.101                   49.660                   50.637                   50.965
22.000                   3.0000                   3.0000                   1.7000                   6000.0                   1000.0                   20.000                   37.230                   43.219                   58.174                   60.233                   61.521                   61.947                   37.643                   43.805                   59.198                   61.320                   62.647                   63.087                   37.453                   43.529                   58.713                   60.804                   62.114                   62.547                   37.335                   43.366                   58.451                   60.529                   61.828                   62.258                   37.752                   43.942                   59.400                   61.530                   62.863                   63.304                   37.251                   43.247                   58.197                   60.252                   61.540                   61.967                   37.705                   43.867                   59.233                   61.347                   62.671                   63.109                   37.843                   44.027                   59.414                   61.534                   62.861                   63.302                   37.401                   43.386                   58.423                   60.509                   61.817                   62.251                   37.304                   42.597                   54.713                   56.282                   57.263                   57.592
22.000                   3.0000                   3.0000                   1.7000                   6000.0                   1000.0                   25.000                   43.778                   50.403                   66.067                   68.165                   69.470                   69.900                   44.273                   51.056                   67.125                   69.282                   70.626                   71.069                   44.049                   50.758                   66.651                   68.782                   70.109                   70.547                   43.911                   50.584                   66.400                   68.516                   69.832                   70.266                   44.400                   51.206                   67.342                   69.509                   70.858                   71.304                   43.809                   50.441                   66.096                   68.188                   69.493                   69.924                   44.350                   51.124                   67.151                   69.302                   70.643                   71.086                   44.464                   51.225                   67.230                   69.386                   70.730                   71.176                   43.858                   50.431                   66.096                   68.213                   69.534                   69.971                   43.293                   48.925                   61.327                   62.906                   63.891                   64.220
22.000                   3.0000                   3.0000                   1.7000                   6000.0                   1000.0                   30.000                   51.128                   57.941                   73.855                   75.971                   77.286                   77.719                   51.657                   58.624                   74.936                   77.113                   78.467                   78.913                   51.417                   58.313                   74.454                   76.603                   77.941                   78.382                   51.272                   58.135                   74.199                   76.334                   77.660                   78.097                   51.786                   58.775                   75.151                   77.337                   78.697                   79.144                   51.166                   57.987                   73.893                   76.005                   77.320                   77.753                   51.753                   58.711                   74.982                   77.153                   78.505                   78.950                   51.771                   58.707                   74.949                   77.124                   78.479                   78.927                   50.892                   57.623                   73.486                   75.617                   76.945                   77.383                   49.932                   55.660                   68.166                   69.749                   70.735                   71.063
22.000                   3.0000                   3.0000                   1.7000                   6000.0                   1000.0                   35.000                   58.477                   65.480                   81.642                   83.777                   85.102                   85.537                   59.040                   66.192                   82.748                   84.943                   86.308                   86.756                   58.784                   65.868                   82.256                   84.425                   85.773                   86.216                   58.634                   65.685                   81.999                   84.152                   85.489                   85.928                   59.172                   66.343                   82.960                   85.165                   86.535                   86.985                   58.523                   65.533                   81.690                   83.822                   85.147                   85.583                   59.156                   66.297                   82.813                   85.004                   86.367                   86.815                   59.079                   66.189                   82.668                   84.862                   86.228                   86.678                   57.925                   64.814                   80.875                   83.020                   84.355                   84.795                   56.571                   62.395                   75.004                   76.592                   77.578                   77.906
22.000                   3.0000                   3.0000                   1.7000                   6000.0                   1000.0                   40.000                   65.826                   73.018                   89.429                   91.583                   92.918                   93.356                   66.424                   73.760                   90.559                   92.774                   94.149                   94.600                   66.152                   73.423                   90.058                   92.246                   93.605                   94.051                   65.995                   73.236                   89.799                   91.971                   93.317                   93.759                   66.557                   73.911                   90.769                   92.993                   94.373                   94.826                   65.880                   73.079                   89.488                   91.639                   92.974                   93.413                   66.559                   73.884                   90.644                   92.855                   94.228                   94.679                   66.386                   73.671                   90.387                   92.601                   93.976                   94.428                   64.958                   72.005                   88.265                   90.424                   91.766                   92.207                   63.209                   69.130                   81.842                   83.434                   84.421                   84.749
22.000                   3.0000                   3.0000                   1.7000                   6000.0                   1000.0                   45.000                   73.175                   80.556                   97.216                   99.389                   100.73                   101.17                   73.808                   81.328                   98.371                   100.60                   101.99                   102.44                   73.520                   80.978                   97.861                   100.07                   101.44                   101.89                   73.356                   80.787                   97.598                   99.789                   101.15                   101.59                   73.943                   81.479                   98.578                   100.82                   102.21                   102.67                   73.237                   80.625                   97.285                   99.456                   100.80                   101.24                   73.963                   81.470                   98.476                   100.71                   102.09                   102.54                   73.694                   81.153                   98.106                   100.34                   101.72                   102.18                   71.991                   79.196                   95.655                   97.827                   99.176                   99.619                   69.848                   75.866                   88.680                   90.277                   91.264                   91.592
22.000                   3.0000                   3.0000                   1.7000                   6000.0                   1000.0                   50.000                   80.747                   88.203                   105.01                   107.19                   108.55                   108.99                   81.400                   88.995                   106.18                   108.44                   109.83                   110.29                   81.102                   88.634                   105.66                   107.88                   109.26                   109.71                   80.936                   88.441                   105.39                   107.60                   108.97                   109.41                   81.535                   89.143                   106.39                   108.65                   110.05                   110.51                   80.817                   88.280                   105.08                   107.27                   108.63                   109.07                   81.573                   89.154                   106.31                   108.56                   109.95                   110.41                   81.171                   88.701                   105.80                   108.05                   109.44                   109.90                   79.162                   86.416                   102.97                   105.16                   106.51                   106.96                   76.685                   82.732                   95.591                   97.190                   98.178                   98.505
22.000                   3.0000                   3.0000                   1.7000                   6000.0                   1000.0                   55.000                   88.486                   95.932                   112.80                   115.00                   116.37                   116.81                   89.149                   96.735                   114.00                   116.27                   117.67                   118.13                   88.844                   96.365                   113.45                   115.69                   117.08                   117.53                   88.678                   96.172                   113.18                   115.40                   116.78                   117.23                   89.280                   96.880                   114.19                   116.47                   117.88                   118.34                   88.563                   96.015                   112.89                   115.09                   116.46                   116.90                   89.337                   96.911                   114.14                   116.40                   117.81                   118.27                   88.775                   96.299                   113.47                   115.74                   117.14                   117.60                   86.435                   93.658                   110.24                   112.43                   113.80                   114.24                   83.670                   89.695                   102.55                   104.16                   105.14                   105.47
22.000                   3.0000                   3.0000                   1.7000                   6000.0                   1000.0                   60.000                   96.225                   103.66                   120.59                   122.81                   124.18                   124.63                   96.898                   104.47                   121.81                   124.10                   125.51                   125.98                   96.586                   104.10                   121.25                   123.50                   124.90                   125.36                   96.420                   103.90                   120.97                   123.21                   124.59                   125.05                   97.025                   104.62                   122.00                   124.30                   125.72                   126.18                   96.309                   103.75                   120.69                   122.91                   124.28                   124.73                   97.102                   104.67                   121.97                   124.25                   125.67                   126.13                   96.379                   103.90                   121.14                   123.42                   124.84                   125.30                   93.708                   100.90                   117.50                   119.71                   121.08                   121.53                   90.654                   96.658                   109.52                   111.12                   112.11                   112.44
22.000                   3.0000                   3.0000                   1.7000                   6000.0                   1000.0                   65.000                   103.96                   111.39                   128.38                   130.61                   132.00                   132.45                   104.65                   112.22                   129.62                   131.93                   133.36                   133.82                   104.33                   111.83                   129.04                   131.31                   132.72                   133.18                   104.16                   111.63                   128.76                   131.01                   132.41                   132.86                   104.77                   112.35                   129.81                   132.12                   133.56                   134.02                   104.05                   111.49                   128.49                   130.72                   132.11                   132.56                   104.87                   112.42                   129.80                   132.10                   133.53                   133.99                   103.98                   111.49                   128.82                   131.11                   132.54                   133.00                   100.98                   108.14                   124.77                   126.98                   128.36                   128.81                   97.638                   103.62                   116.48                   118.09                   119.08                   119.40
22.000                   3.0000                   3.0000                   1.7000                   6000.0                   1000.0                   70.000                   111.71                   119.13                   136.18                   138.43                   139.82                   140.28                   112.40                   119.96                   137.45                   139.77                   141.21                   141.68                   112.08                   119.57                   136.84                   139.13                   140.55                   141.01                   111.91                   119.37                   136.56                   138.83                   140.23                   140.69                   112.52                   120.10                   137.63                   139.96                   141.40                   141.87                   111.81                   119.23                   136.30                   138.55                   139.95                   140.40                   112.64                   120.19                   137.64                   139.96                   141.40                   141.87                   111.59                   119.09                   136.49                   138.80                   140.24                   140.71                   108.25                   115.38                   132.03                   134.26                   135.64                   136.10                   104.63                   110.59                   123.45                   125.06                   126.05                   126.38
22.000                   3.0000                   3.0000                   1.7000                   6000.0                   1000.0                   75.000                   119.52                   126.92                   144.04                   146.31                   147.72                   148.17                   120.21                   127.77                   145.34                   147.67                   149.13                   149.60                   119.88                   127.36                   144.71                   147.02                   148.45                   148.91                   119.72                   127.17                   144.42                   146.71                   148.13                   148.59                   120.33                   127.90                   145.52                   147.86                   149.32                   149.79                   119.62                   127.03                   144.18                   146.45                   147.85                   148.31                   120.45                   128.00                   145.54                   147.87                   149.32                   149.79                   119.19                   126.68                   144.16                   146.49                   147.94                   148.41                   115.51                   122.61                   139.30                   141.54                   142.93                   143.39                   111.68                   117.61                   130.46                   132.07                   133.06                   133.39