% Model:              batchmodel_COIL_N_22_COIL_kr_1.5_COIL_kh_1_COIL_kturn_1.4_FUNZ_freq_10000_FUNZ_I_eff_4000.mph
% Version:            COMSOL 5.6.0.280
% Date:               Feb 2 2022, 11:25
% Table:              Tabella 1 - GRIGLIA_T
% COIL_N                 COIL_kr                  COIL_kh                  COIL_kturn               FUNZ_freq                FUNZ_I_eff               Time (s)                 Temperatura (degC), Punto: (0, 0)Temperatura (degC), Punto: (15, 0)Temperatura (degC), Punto: (28.051, 0)Temperatura (degC), Punto: (29.025, 0)Temperatura (degC), Punto: (29.61, 0)Temperatura (degC), Punto: (29.805, 0)Temperatura (degC), Punto: (0, 62.5)Temperatura (degC), Punto: (15, 62.5)Temperatura (degC), Punto: (28.051, 62.5)Temperatura (degC), Punto: (29.025, 62.5)Temperatura (degC), Punto: (29.61, 62.5)Temperatura (degC), Punto: (29.805, 62.5)Temperatura (degC), Punto: (0, 125)Temperatura (degC), Punto: (15, 125)Temperatura (degC), Punto: (28.051, 125)Temperatura (degC), Punto: (29.025, 125)Temperatura (degC), Punto: (29.61, 125)Temperatura (degC), Punto: (29.805, 125)Temperatura (degC), Punto: (0, 187.5)Temperatura (degC), Punto: (15, 187.5)Temperatura (degC), Punto: (28.051, 187.5)Temperatura (degC), Punto: (29.025, 187.5)Temperatura (degC), Punto: (29.61, 187.5)Temperatura (degC), Punto: (29.805, 187.5)Temperatura (degC), Punto: (0, 250)Temperatura (degC), Punto: (15, 250)Temperatura (degC), Punto: (28.051, 250)Temperatura (degC), Punto: (29.025, 250)Temperatura (degC), Punto: (29.61, 250)Temperatura (degC), Punto: (29.805, 250)Temperatura (degC), Punto: (0, 312.5)Temperatura (degC), Punto: (15, 312.5)Temperatura (degC), Punto: (28.051, 312.5)Temperatura (degC), Punto: (29.025, 312.5)Temperatura (degC), Punto: (29.61, 312.5)Temperatura (degC), Punto: (29.805, 312.5)Temperatura (degC), Punto: (0, 375)Temperatura (degC), Punto: (15, 375)Temperatura (degC), Punto: (28.051, 375)Temperatura (degC), Punto: (29.025, 375)Temperatura (degC), Punto: (29.61, 375)Temperatura (degC), Punto: (29.805, 375)Temperatura (degC), Punto: (0, 437.5)Temperatura (degC), Punto: (15, 437.5)Temperatura (degC), Punto: (28.051, 437.5)Temperatura (degC), Punto: (29.025, 437.5)Temperatura (degC), Punto: (29.61, 437.5)Temperatura (degC), Punto: (29.805, 437.5)Temperatura (degC), Punto: (0, 468.75)Temperatura (degC), Punto: (15, 468.75)Temperatura (degC), Punto: (28.051, 468.75)Temperatura (degC), Punto: (29.025, 468.75)Temperatura (degC), Punto: (29.61, 468.75)Temperatura (degC), Punto: (29.805, 468.75)Temperatura (degC), Punto: (0, 492.19)Temperatura (degC), Punto: (15, 492.19)Temperatura (degC), Punto: (28.051, 492.19)Temperatura (degC), Punto: (29.025, 492.19)Temperatura (degC), Punto: (29.61, 492.19)Temperatura (degC), Punto: (29.805, 492.19)
22.000                   1.5000                   1.0000                   1.4000                   10000                    4000.0                   0.0000                   20.000                   20.000                   20.000                   20.051                   20.938                   21.545                   20.000                   20.000                   20.000                   20.053                   20.950                   21.560                   20.000                   20.000                   20.000                   20.055                   20.963                   21.578                   20.000                   20.000                   20.000                   20.053                   20.955                   21.568                   20.000                   20.000                   20.000                   20.051                   20.939                   21.547                   20.000                   20.000                   20.000                   20.002                   20.386                   20.773                   20.000                   20.000                   20.000                   20.000                   20.002                   20.027                   20.000                   20.000                   20.000                   20.000                   20.000                   20.003                   20.000                   20.000                   20.000                   20.000                   20.000                   20.001                   20.000                   20.000                   20.000                   20.000                   20.000                   20.001
22.000                   1.5000                   1.0000                   1.4000                   10000                    4000.0                   5.0000                   57.402                   200.47                   1245.5                   1302.0                   1314.7                   1315.4                   57.205                   201.27                   1253.3                   1308.6                   1321.0                   1321.7                   57.274                   201.79                   1262.4                   1316.5                   1328.6                   1329.3                   57.248                   201.61                   1259.2                   1314.1                   1326.4                   1327.1                   57.190                   200.79                   1245.9                   1302.1                   1314.8                   1315.6                   41.668                   127.97                   589.85                   659.57                   697.15                   704.62                   21.015                   25.092                   43.021                   45.062                   46.327                   46.745                   20.283                   21.384                   25.265                   25.626                   25.786                   25.842                   20.141                   20.657                   22.306                   22.439                   22.518                   22.544                   20.120                   20.550                   21.775                   21.848                   21.887                   21.900
22.000                   1.5000                   1.0000                   1.4000                   10000                    4000.0                   10.000                   225.34                   438.84                   1347.6                   1370.8                   1374.9                   1374.5                   225.33                   439.45                   1350.4                   1373.5                   1377.6                   1377.1                   225.46                   440.00                   1353.7                   1376.7                   1380.8                   1380.4                   225.45                   439.86                   1352.2                   1375.2                   1379.3                   1378.8                   225.29                   439.01                   1348.0                   1371.1                   1375.2                   1374.8                   151.62                   281.75                   729.18                   789.35                   821.60                   827.80                   28.528                   36.483                   58.335                   60.552                   61.919                   62.369                   21.884                   23.356                   26.691                   26.992                   27.175                   27.236                   20.814                   21.432                   22.845                   22.975                   23.054                   23.081                   20.637                   21.076                   21.920                   21.984                   22.023                   22.036
22.000                   1.5000                   1.0000                   1.4000                   10000                    4000.0                   15.000                   391.98                   619.66                   1409.6                   1424.1                   1425.9                   1425.0                   391.95                   620.98                   1410.5                   1425.1                   1426.9                   1426.1                   392.06                   621.30                   1412.2                   1426.9                   1428.8                   1427.9                   392.08                   621.17                   1411.4                   1426.0                   1427.8                   1427.0                   391.94                   620.59                   1409.3                   1423.8                   1425.6                   1424.7                   272.71                   413.36                   912.27                   967.35                   989.88                   993.54                   41.151                   51.054                   75.635                   78.019                   79.482                   79.959                   23.718                   25.129                   28.401                   28.711                   28.900                   28.964                   21.580                   22.169                   23.554                   23.687                   23.768                   23.795                   21.154                   21.529                   22.294                   22.359                   22.398                   22.411
22.000                   1.5000                   1.0000                   1.4000                   10000                    4000.0                   20.000                   532.08                   774.76                   1491.5                   1509.7                   1512.3                   1511.4                   532.09                   777.48                   1493.7                   1512.0                   1514.6                   1513.7                   532.06                   776.60                   1496.9                   1515.4                   1518.0                   1517.1                   532.10                   776.58                   1495.4                   1513.8                   1516.4                   1515.5                   531.97                   775.74                   1491.9                   1510.1                   1512.6                   1511.7                   382.12                   527.94                   1103.2                   1137.1                   1146.3                   1146.9                   57.142                   68.269                   94.844                   97.368                   98.913                   99.414                   25.541                   26.919                   30.220                   30.538                   30.733                   30.798                   22.370                   22.948                   24.340                   24.475                   24.558                   24.586                   21.657                   22.002                   22.746                   22.812                   22.851                   22.865
22.000                   1.5000                   1.0000                   1.4000                   10000                    4000.0                   25.000                   645.82                   959.09                   1618.6                   1634.7                   1635.5                   1634.0                   645.48                   958.03                   1620.7                   1637.0                   1637.8                   1636.2                   645.28                   958.00                   1623.8                   1640.2                   1641.1                   1639.5                   645.30                   957.65                   1622.3                   1638.6                   1639.4                   1637.9                   645.18                   957.16                   1619.0                   1635.0                   1635.8                   1634.3                   476.48                   624.96                   1208.6                   1228.6                   1232.5                   1232.3                   75.921                   87.761                   115.60                   118.23                   119.83                   120.35                   27.418                   28.805                   32.160                   32.483                   32.682                   32.748                   23.199                   23.779                   25.185                   25.321                   25.405                   25.433                   22.175                   22.513                   23.256                   23.322                   23.362                   23.375
22.000                   1.5000                   1.0000                   1.4000                   10000                    4000.0                   30.000                   729.93                   1126.3                   1741.0                   1753.8                   1752.4                   1750.1                   727.91                   1126.3                   1743.1                   1756.0                   1754.7                   1752.3                   727.67                   1126.3                   1745.8                   1758.9                   1757.6                   1755.3                   727.70                   1126.3                   1744.3                   1757.4                   1756.0                   1753.7                   727.58                   1125.5                   1741.1                   1753.9                   1752.5                   1750.2                   557.21                   708.97                   1264.0                   1278.0                   1279.9                   1279.3                   96.459                   108.67                   137.39                   140.10                   141.76                   142.29                   29.428                   30.838                   34.244                   34.572                   34.773                   34.840                   24.077                   24.662                   26.078                   26.215                   26.299                   26.328                   22.730                   23.069                   23.814                   23.880                   23.920                   23.933
22.000                   1.5000                   1.0000                   1.4000                   10000                    4000.0                   35.000                   844.49                   1267.4                   1850.7                   1859.7                   1855.9                   1852.8                   842.16                   1267.0                   1852.4                   1861.6                   1857.8                   1854.7                   842.06                   1267.7                   1855.1                   1864.4                   1860.6                   1857.5                   842.01                   1267.7                   1853.6                   1862.9                   1859.1                   1856.0                   841.74                   1266.9                   1850.3                   1859.4                   1855.6                   1852.5                   625.99                   795.26                   1305.0                   1315.4                   1316.1                   1315.2                   117.73                   130.18                   159.60                   162.38                   164.08                   164.62                   31.625                   33.059                   36.512                   36.844                   37.048                   37.116                   25.010                   25.600                   27.024                   27.162                   27.246                   27.275                   23.331                   23.672                   24.418                   24.484                   24.523                   24.537
22.000                   1.5000                   1.0000                   1.4000                   10000                    4000.0                   40.000                   1025.6                   1387.1                   1948.3                   1953.3                   1947.1                   1943.1                   1025.7                   1386.0                   1949.6                   1954.8                   1948.6                   1944.7                   1025.6                   1386.4                   1952.3                   1957.7                   1951.5                   1947.5                   1025.7                   1386.3                   1950.9                   1956.2                   1950.0                   1946.0                   1024.8                   1385.5                   1947.5                   1952.6                   1946.3                   1942.4                   684.57                   890.03                   1341.3                   1349.2                   1348.9                   1347.9                   139.24                   151.86                   181.81                   184.65                   186.40                   186.95                   34.040                   35.495                   38.993                   39.329                   39.535                   39.604                   26.004                   26.597                   28.029                   28.167                   28.252                   28.281                   23.980                   24.321                   25.069                   25.134                   25.174                   25.187
22.000                   1.5000                   1.0000                   1.4000                   10000                    4000.0                   45.000                   1210.8                   1503.0                   2036.5                   2037.5                   2028.8                   2024.0                   1210.4                   1501.8                   2037.6                   2038.8                   2030.1                   2025.3                   1210.3                   1501.5                   2040.3                   2041.6                   2033.0                   2028.2                   1210.4                   1501.3                   2038.9                   2040.2                   2031.5                   2026.7                   1209.2                   1500.1                   2035.2                   2036.3                   2027.6                   2022.9                   738.43                   983.14                   1374.7                   1380.8                   1379.9                   1378.7                   160.68                   173.39                   203.73                   206.63                   208.41                   208.97                   36.691                   38.165                   41.708                   42.048                   42.257                   42.327                   27.064                   27.661                   29.100                   29.239                   29.324                   29.353                   24.677                   25.020                   25.768                   25.833                   25.873                   25.887
22.000                   1.5000                   1.0000                   1.4000                   10000                    4000.0                   50.000                   1348.9                   1631.0                   2116.5                   2113.5                   2102.4                   2096.8                   1347.4                   1631.5                   2117.7                   2114.9                   2103.8                   2098.2                   1347.5                   1631.4                   2120.3                   2117.6                   2106.5                   2100.9                   1347.6                   1631.4                   2118.9                   2116.2                   2105.1                   2099.4                   1346.7                   1629.3                   2114.8                   2112.0                   2100.9                   2095.3                   805.19                   1067.5                   1408.7                   1413.4                   1412.0                   1410.7                   181.73                   194.49                   225.14                   228.08                   229.89                   230.46                   39.599                   41.092                   44.678                   45.023                   45.234                   45.305                   28.199                   28.800                   30.247                   30.386                   30.472                   30.501                   25.425                   25.768                   26.517                   26.583                   26.623                   26.636
22.000                   1.5000                   1.0000                   1.4000                   10000                    4000.0                   55.000                   1454.2                   1751.6                   2189.4                   2182.5                   2168.9                   2162.5                   1454.4                   1752.6                   2190.9                   2184.1                   2170.5                   2164.1                   1454.9                   1752.6                   2193.2                   2186.6                   2173.1                   2166.6                   1455.2                   1752.7                   2191.9                   2185.2                   2171.6                   2165.2                   1454.7                   1749.7                   2187.3                   2180.6                   2167.1                   2160.7                   901.11                   1143.1                   1444.1                   1447.8                   1446.0                   1444.5                   202.19                   214.97                   245.91                   248.90                   250.73                   251.31                   42.775                   44.286                   47.916                   48.265                   48.479                   48.550                   29.419                   30.023                   31.478                   31.618                   31.704                   31.733                   26.227                   26.571                   27.320                   27.386                   27.426                   27.439
22.000                   1.5000                   1.0000                   1.4000                   10000                    4000.0                   60.000                   1584.8                   1859.8                   2254.4                   2243.7                   2227.9                   2220.7                   1588.0                   1860.5                   2256.1                   2245.5                   2229.7                   2222.5                   1588.5                   1860.6                   2258.4                   2247.9                   2232.1                   2224.8                   1589.1                   1860.7                   2257.1                   2246.5                   2230.7                   2223.5                   1586.5                   1856.7                   2252.0                   2241.4                   2225.6                   2218.5                   1006.4                   1210.2                   1481.9                   1484.8                   1482.4                   1480.9                   221.73                   234.54                   265.68                   268.69                   270.55                   271.12                   46.306                   47.834                   51.504                   51.856                   52.072                   52.144                   30.766                   31.374                   32.836                   32.976                   33.063                   33.092                   27.105                   27.450                   28.200                   28.266                   28.306                   28.319
22.000                   1.5000                   1.0000                   1.4000                   10000                    4000.0                   65.000                   1708.8                   1958.1                   2311.2                   2297.0                   2279.0                   2271.1                   1711.0                   1958.7                   2313.0                   2298.9                   2280.9                   2273.0                   1711.2                   1958.8                   2315.3                   2301.3                   2283.2                   2275.3                   1711.6                   1958.8                   2314.0                   2299.9                   2281.9                   2273.9                   1707.1                   1953.8                   2308.2                   2294.2                   2276.3                   2268.4                   1090.7                   1267.5                   1518.5                   1520.3                   1517.4                   1515.6                   240.15                   252.94                   284.15                   287.19                   289.05                   289.63                   50.239                   51.783                   55.487                   55.843                   56.061                   56.134                   32.299                   32.911                   34.379                   34.520                   34.607                   34.636                   28.099                   28.445                   29.195                   29.260                   29.300                   29.314
22.000                   1.5000                   1.0000                   1.4000                   10000                    4000.0                   70.000                   1822.6                   2049.3                   2362.9                   2345.3                   2325.2                   2316.6                   1824.0                   2049.8                   2364.7                   2347.2                   2327.2                   2318.5                   1824.0                   2049.9                   2366.9                   2349.6                   2329.5                   2320.8                   1824.3                   2050.0                   2365.7                   2348.2                   2328.1                   2319.5                   1817.8                   2043.6                   2359.3                   2341.9                   2322.0                   2313.4                   1162.7                   1318.5                   1554.0                   1554.7                   1551.2                   1549.3                   257.84                   270.59                   301.83                   304.88                   306.76                   307.33                   54.421                   55.979                   59.719                   60.078                   60.298                   60.371                   33.957                   34.571                   36.046                   36.187                   36.274                   36.303                   29.172                   29.518                   30.268                   30.333                   30.373                   30.387
22.000                   1.5000                   1.0000                   1.4000                   10000                    4000.0                   75.000                   1927.5                   2134.1                   2410.4                   2389.6                   2367.5                   2358.3                   1928.4                   2134.5                   2412.3                   2391.5                   2369.5                   2360.3                   1928.3                   2134.7                   2414.5                   2393.9                   2371.8                   2362.5                   1928.6                   2134.7                   2413.2                   2392.5                   2370.5                   2361.2                   1920.1                   2126.9                   2406.1                   2385.6                   2363.8                   2354.6                   1227.2                   1367.1                   1587.8                   1587.5                   1583.4                   1581.3                   274.92                   287.62                   318.85                   321.91                   323.79                   324.36                   58.786                   60.358                   64.130                   64.492                   64.714                   64.788                   35.733                   36.351                   37.831                   37.973                   38.061                   38.090                   30.328                   30.673                   31.423                   31.488                   31.528                   31.541