% Model:              batchmodel_COIL_N_22_COIL_kr_3_COIL_kh_1_COIL_kturn_1.7_FUNZ_freq_2000_FUNZ_I_eff_2500.mph
% Version:            COMSOL 5.6.0.280
% Date:               Feb 3 2022, 03:59
% Table:              Tabella 1 - GRIGLIA_T
% COIL_N                 COIL_kr                  COIL_kh                  COIL_kturn               FUNZ_freq                FUNZ_I_eff               Time (s)                 Temperatura (degC), Punto: (0, 0)Temperatura (degC), Punto: (15, 0)Temperatura (degC), Punto: (25.641, 0)Temperatura (degC), Punto: (27.821, 0)Temperatura (degC), Punto: (29.128, 0)Temperatura (degC), Punto: (29.564, 0)Temperatura (degC), Punto: (0, 62.5)Temperatura (degC), Punto: (15, 62.5)Temperatura (degC), Punto: (25.641, 62.5)Temperatura (degC), Punto: (27.821, 62.5)Temperatura (degC), Punto: (29.128, 62.5)Temperatura (degC), Punto: (29.564, 62.5)Temperatura (degC), Punto: (0, 125)Temperatura (degC), Punto: (15, 125)Temperatura (degC), Punto: (25.641, 125)Temperatura (degC), Punto: (27.821, 125)Temperatura (degC), Punto: (29.128, 125)Temperatura (degC), Punto: (29.564, 125)Temperatura (degC), Punto: (0, 187.5)Temperatura (degC), Punto: (15, 187.5)Temperatura (degC), Punto: (25.641, 187.5)Temperatura (degC), Punto: (27.821, 187.5)Temperatura (degC), Punto: (29.128, 187.5)Temperatura (degC), Punto: (29.564, 187.5)Temperatura (degC), Punto: (0, 250)Temperatura (degC), Punto: (15, 250)Temperatura (degC), Punto: (25.641, 250)Temperatura (degC), Punto: (27.821, 250)Temperatura (degC), Punto: (29.128, 250)Temperatura (degC), Punto: (29.564, 250)Temperatura (degC), Punto: (0, 312.5)Temperatura (degC), Punto: (15, 312.5)Temperatura (degC), Punto: (25.641, 312.5)Temperatura (degC), Punto: (27.821, 312.5)Temperatura (degC), Punto: (29.128, 312.5)Temperatura (degC), Punto: (29.564, 312.5)Temperatura (degC), Punto: (0, 375)Temperatura (degC), Punto: (15, 375)Temperatura (degC), Punto: (25.641, 375)Temperatura (degC), Punto: (27.821, 375)Temperatura (degC), Punto: (29.128, 375)Temperatura (degC), Punto: (29.564, 375)Temperatura (degC), Punto: (0, 437.5)Temperatura (degC), Punto: (15, 437.5)Temperatura (degC), Punto: (25.641, 437.5)Temperatura (degC), Punto: (27.821, 437.5)Temperatura (degC), Punto: (29.128, 437.5)Temperatura (degC), Punto: (29.564, 437.5)Temperatura (degC), Punto: (0, 468.75)Temperatura (degC), Punto: (15, 468.75)Temperatura (degC), Punto: (25.641, 468.75)Temperatura (degC), Punto: (27.821, 468.75)Temperatura (degC), Punto: (29.128, 468.75)Temperatura (degC), Punto: (29.564, 468.75)Temperatura (degC), Punto: (0, 492.19)Temperatura (degC), Punto: (15, 492.19)Temperatura (degC), Punto: (25.641, 492.19)Temperatura (degC), Punto: (27.821, 492.19)Temperatura (degC), Punto: (29.128, 492.19)Temperatura (degC), Punto: (29.564, 492.19)
22.000                   3.0000                   1.0000                   1.7000                   2000.0                   2500.0                   0.0000                   20.000                   20.000                   20.000                   20.000                   20.051                   20.116                   20.000                   20.000                   20.000                   20.000                   20.051                   20.116                   20.000                   20.000                   20.000                   20.000                   20.051                   20.116                   20.000                   20.000                   20.000                   20.000                   20.051                   20.116                   20.000                   20.000                   20.000                   20.000                   20.051                   20.116                   20.000                   20.000                   20.000                   20.000                   20.048                   20.112                   20.000                   20.000                   20.000                   20.000                   20.025                   20.070                   20.000                   20.000                   20.000                   20.000                   20.001                   20.017                   20.000                   20.000                   20.000                   20.000                   20.000                   20.006                   20.000                   20.000                   20.000                   20.000                   20.000                   20.001
22.000                   3.0000                   1.0000                   1.7000                   2000.0                   2500.0                   5.0000                   26.841                   54.055                   164.32                   206.50                   233.75                   240.15                   26.844                   54.071                   164.21                   206.36                   233.59                   240.02                   26.847                   54.078                   164.24                   206.39                   233.62                   240.06                   26.824                   53.932                   163.42                   205.26                   232.36                   238.74                   26.894                   54.162                   162.39                   202.05                   228.04                   234.47                   26.323                   51.588                   154.29                   193.02                   218.60                   224.73                   23.987                   39.802                   102.53                   125.14                   139.91                   144.03                   21.231                   26.137                   45.351                   51.573                   55.444                   56.816                   20.606                   22.881                   31.281                   34.044                   35.771                   36.355                   21.443                   24.324                   32.275                   34.926                   35.857                   36.105
22.000                   3.0000                   1.0000                   1.7000                   2000.0                   2500.0                   10.000                   74.548                   135.29                   296.13                   351.75                   385.34                   392.51                   74.538                   135.23                   295.79                   351.30                   384.91                   392.09                   74.543                   135.24                   295.80                   351.30                   384.91                   392.09                   74.401                   134.94                   295.25                   350.70                   384.31                   391.48                   74.241                   134.46                   293.93                   349.06                   382.68                   389.86                   70.636                   127.30                   276.33                   327.18                   358.22                   365.13                   51.855                   87.086                   175.15                   203.25                   221.24                   225.64                   29.748                   40.045                   64.058                   70.581                   74.546                   75.777                   24.960                   29.751                   40.218                   43.093                   44.897                   45.484                   25.301                   29.211                   36.505                   38.056                   38.558                   38.740
22.000                   3.0000                   1.0000                   1.7000                   2000.0                   2500.0                   15.000                   148.43                   228.19                   428.57                   497.76                   536.56                   544.36                   148.40                   228.12                   428.43                   497.53                   536.36                   544.17                   148.41                   228.13                   428.49                   497.63                   536.43                   544.24                   148.19                   227.83                   428.12                   497.28                   536.13                   543.96                   147.59                   226.88                   426.44                   495.30                   533.91                   541.67                   139.73                   214.15                   398.43                   460.97                   496.78                   504.09                   96.560                   142.44                   246.88                   279.18                   299.46                   304.25                   43.401                   56.219                   82.798                   89.834                   94.318                   95.700                   31.784                   37.577                   48.987                   52.051                   54.003                   54.647                   29.877                   33.855                   40.959                   42.443                   43.142                   43.389
22.000                   3.0000                   1.0000                   1.7000                   2000.0                   2500.0                   20.000                   230.65                   323.77                   558.87                   640.83                   684.83                   693.30                   230.61                   323.70                   558.73                   640.70                   684.69                   693.16                   230.62                   323.73                   558.82                   640.78                   684.78                   693.26                   230.37                   323.40                   558.33                   640.15                   684.09                   692.55                   229.41                   322.17                   556.64                   638.59                   682.45                   690.86                   217.06                   303.94                   519.96                   593.76                   633.84                   641.72                   148.14                   201.18                   320.13                   357.26                   380.00                   385.12                   59.595                   73.915                   102.55                   110.09                   115.04                   116.56                   39.656                   45.912                   57.878                   61.094                   63.153                   63.832                   34.759                   38.558                   44.966                   46.205                   46.870                   47.105
22.000                   3.0000                   1.0000                   1.7000                   2000.0                   2500.0                   25.000                   310.31                   411.03                   669.51                   770.29                   821.01                   830.00                   310.27                   410.97                   669.41                   770.19                   820.91                   829.90                   310.29                   411.00                   669.51                   770.30                   821.03                   830.03                   310.02                   410.68                   669.08                   769.78                   820.48                   829.47                   308.86                   409.31                   667.11                   767.65                   818.35                   827.32                   292.46                   386.03                   617.66                   699.67                   744.92                   753.45                   202.85                   261.33                   393.73                   435.39                   460.12                   465.46                   78.436                   93.759                   124.19                   132.38                   137.71                   139.30                   48.666                   55.229                   67.810                   71.210                   73.390                   74.104                   40.197                   43.792                   49.792                   51.053                   51.783                   52.035
22.000                   3.0000                   1.0000                   1.7000                   2000.0                   2500.0                   30.000                   388.94                   495.83                   776.56                   897.33                   953.39                   962.53                   388.90                   495.78                   776.48                   897.22                   953.30                   962.44                   388.92                   495.82                   776.58                   897.36                   953.43                   962.57                   388.65                   495.52                   776.24                   897.01                   953.11                   962.26                   387.32                   494.00                   773.67                   893.87                   950.04                   959.23                   366.98                   465.76                   708.69                   800.10                   850.70                   859.80                   258.10                   321.65                   467.14                   513.14                   539.68                   545.20                   97.859                   114.04                   145.96                   154.83                   160.50                   162.16                   57.940                   64.778                   77.963                   81.539                   83.833                   84.576                   45.767                   49.122                   54.566                   55.873                   56.706                   56.980
22.000                   3.0000                   1.0000                   1.7000                   2000.0                   2500.0                   35.000                   462.35                   573.13                   893.87                   1011.2                   1054.9                   1060.8                   462.32                   573.09                   893.80                   1011.1                   1054.9                   1060.8                   462.35                   573.13                   893.87                   1011.2                   1054.9                   1060.8                   462.08                   572.86                   893.75                   1011.3                   1055.0                   1060.9                   460.65                   571.39                   895.44                   1015.3                   1059.2                   1065.0                   437.00                   538.67                   800.19                   909.08                   958.59                   966.58                   312.83                   380.56                   534.29                   582.08                   608.86                   614.29                   118.14                   135.14                   168.51                   177.60                   183.38                   185.05                   67.733                   74.823                   88.383                   92.005                   94.308                   95.049                   51.725                   55.038                   60.588                   61.909                   62.711                   62.976
22.000                   3.0000                   1.0000                   1.7000                   2000.0                   2500.0                   40.000                   528.92                   641.28                   1008.2                   1090.5                   1110.2                   1111.5                   528.69                   639.33                   974.97                   1060.6                   1084.1                   1086.1                   528.53                   637.58                   934.85                   1011.9                   1039.5                   1043.0                   528.54                   639.78                   987.36                   1072.6                   1094.6                   1096.3                   527.33                   639.93                   1003.7                   1086.4                   1106.3                   1107.6                   500.01                   601.38                   876.24                   973.34                   1013.7                   1019.8                   365.04                   434.16                   586.25                   632.11                   657.69                   662.78                   139.07                   156.42                   189.75                   198.68                   204.33                   205.95                   78.086                   85.217                   98.580                   102.09                   104.32                   105.03                   58.275                   61.572                   67.013                   68.280                   69.043                   69.294
22.000                   3.0000                   1.0000                   1.7000                   2000.0                   2500.0                   45.000                   588.70                   702.61                   1081.6                   1129.6                   1138.1                   1137.6                   587.62                   695.29                   1022.1                   1080.2                   1093.5                   1094.0                   586.73                   688.96                   945.93                   997.92                   1017.5                   1020.0                   587.77                   697.35                   1043.5                   1098.6                   1110.0                   1110.1                   587.23                   699.69                   1060.3                   1111.1                   1120.7                   1120.5                   556.60                   655.52                   947.58                   1031.5                   1061.4                   1065.0                   412.99                   481.47                   629.54                   674.52                   699.46                   704.34                   160.00                   177.42                   210.84                   219.83                   225.54                   227.16                   88.778                   95.870                   109.16                   112.67                   114.91                   115.62                   65.329                   68.588                   73.955                   75.208                   75.965                   76.215
22.000                   3.0000                   1.0000                   1.7000                   2000.0                   2500.0                   50.000                   639.87                   756.90                   1112.5                   1142.6                   1146.2                   1145.0                   637.32                   741.29                   1048.3                   1089.0                   1097.3                   1097.1                   635.19                   728.86                   960.85                   1001.0                   1015.9                   1017.7                   637.96                   745.49                   1069.9                   1107.3                   1113.9                   1113.3                   638.16                   749.75                   1085.5                   1119.4                   1124.5                   1123.7                   606.28                   705.09                   1043.9                   1102.3                   1114.9                   1115.1                   455.74                   522.64                   665.15                   708.48                   732.42                   737.06                   180.66                   198.13                   231.83                   240.97                   246.76                   248.39                   99.783                   106.86                   120.22                   123.78                   126.04                   126.76                   72.897                   76.136                   81.483                   82.736                   83.494                   83.743
22.000                   3.0000                   1.0000                   1.7000                   2000.0                   2500.0                   55.000                   681.57                   812.68                   1124.2                   1145.0                   1146.2                   1144.7                   677.64                   786.12                   1065.8                   1095.8                   1101.0                   1100.3                   674.36                   765.04                   982.70                   1016.0                   1027.3                   1028.3                   678.74                   793.24                   1084.3                   1111.5                   1115.4                   1114.4                   679.42                   799.79                   1098.9                   1123.3                   1125.9                   1124.6                   649.32                   752.47                   1088.2                   1125.3                   1131.2                   1130.4                   494.01                   558.78                   695.58                   737.48                   761.06                   765.56                   200.94                   218.53                   252.73                   262.04                   267.96                   269.60                   111.10                   118.23                   131.76                   135.38                   137.68                   138.41                   80.967                   84.205                   89.570                   90.831                   91.595                   91.847
22.000                   3.0000                   1.0000                   1.7000                   2000.0                   2500.0                   60.000                   713.59                   863.67                   1127.3                   1142.2                   1142.0                   1140.3                   709.15                   831.26                   1078.6                   1101.0                   1103.9                   1102.9                   705.31                   804.41                   1010.6                   1038.4                   1046.1                   1046.3                   710.45                   840.18                   1093.6                   1113.7                   1115.6                   1114.3                   711.32                   847.98                   1106.8                   1124.7                   1125.6                   1124.2                   686.22                   804.02                   1109.2                   1133.6                   1135.9                   1134.6                   528.98                   591.20                   723.04                   764.98                   788.79                   793.25                   220.87                   238.64                   273.32                   282.80                   288.82                   290.48                   122.67                   129.88                   143.60                   147.27                   149.61                   150.36                   89.439                   92.687                   98.073                   99.341                   100.11                   100.36
22.000                   3.0000                   1.0000                   1.7000                   2000.0                   2500.0                   65.000                   741.34                   907.28                   1126.2                   1137.1                   1136.0                   1134.2                   735.23                   874.25                   1088.5                   1105.1                   1106.2                   1104.9                   730.29                   846.20                   1040.2                   1062.2                   1066.6                   1066.1                   737.10                   883.74                   1099.9                   1114.7                   1115.1                   1113.7                   738.29                   891.70                   1111.1                   1124.4                   1124.0                   1122.4                   715.83                   855.11                   1118.0                   1134.6                   1134.8                   1133.3                   560.81                   620.39                   748.75                   791.77                   815.66                   820.01                   240.44                   258.37                   293.45                   303.06                   309.15                   310.82                   134.47                   141.76                   155.66                   159.38                   161.75                   162.51                   98.277                   101.53                   106.94                   108.21                   108.98                   109.24
22.000                   3.0000                   1.0000                   1.7000                   2000.0                   2500.0                   70.000                   773.79                   944.09                   1124.2                   1132.3                   1130.5                   1128.6                   763.78                   914.28                   1096.9                   1109.0                   1108.8                   1107.2                   756.01                   888.87                   1066.2                   1082.4                   1084.1                   1083.0                   767.11                   923.30                   1105.0                   1115.9                   1115.1                   1113.5                   768.92                   930.44                   1113.8                   1123.5                   1122.3                   1120.5                   742.51                   902.06                   1121.4                   1132.9                   1131.9                   1130.1                   589.65                   646.73                   773.46                   817.41                   840.94                   845.11                   259.61                   277.68                   313.08                   322.79                   328.93                   330.59                   146.45                   153.82                   167.88                   171.65                   174.05                   174.81                   107.44                   110.71                   116.14                   117.41                   118.19                   118.44
22.000                   3.0000                   1.0000                   1.7000                   2000.0                   2500.0                   75.000                   815.86                   975.32                   1123.9                   1129.8                   1127.4                   1125.5                   802.48                   950.54                   1104.6                   1113.2                   1111.9                   1110.2                   792.03                   929.60                   1085.1                   1096.4                   1096.3                   1094.9                   807.26                   958.47                   1110.3                   1118.0                   1116.4                   1114.6                   809.43                   964.15                   1116.6                   1123.6                   1121.6                   1119.8                   776.78                   942.17                   1123.3                   1131.3                   1129.5                   1127.6                   614.88                   669.74                   796.55                   840.30                   863.04                   866.99                   278.14                   296.33                   331.99                   341.77                   347.96                   349.61                   158.58                   166.02                   180.23                   184.04                   186.47                   187.23                   116.99                   120.27                   125.72                   127.00                   127.77                   128.03