% Model:              batchmodel_COIL_N_22_COIL_kr_3_COIL_kh_1_COIL_kturn_1.4_FUNZ_freq_6000_FUNZ_I_eff_1000.mph
% Version:            COMSOL 5.6.0.280
% Date:               Feb 3 2022, 02:49
% Table:              Tabella 1 - GRIGLIA_T
% COIL_N                 COIL_kr                  COIL_kh                  COIL_kturn               FUNZ_freq                FUNZ_I_eff               Time (s)                 Temperatura (degC), Punto: (0, 0)Temperatura (degC), Punto: (15, 0)Temperatura (degC), Punto: (27.483, 0)Temperatura (degC), Punto: (28.742, 0)Temperatura (degC), Punto: (29.497, 0)Temperatura (degC), Punto: (29.748, 0)Temperatura (degC), Punto: (0, 62.5)Temperatura (degC), Punto: (15, 62.5)Temperatura (degC), Punto: (27.483, 62.5)Temperatura (degC), Punto: (28.742, 62.5)Temperatura (degC), Punto: (29.497, 62.5)Temperatura (degC), Punto: (29.748, 62.5)Temperatura (degC), Punto: (0, 125)Temperatura (degC), Punto: (15, 125)Temperatura (degC), Punto: (27.483, 125)Temperatura (degC), Punto: (28.742, 125)Temperatura (degC), Punto: (29.497, 125)Temperatura (degC), Punto: (29.748, 125)Temperatura (degC), Punto: (0, 187.5)Temperatura (degC), Punto: (15, 187.5)Temperatura (degC), Punto: (27.483, 187.5)Temperatura (degC), Punto: (28.742, 187.5)Temperatura (degC), Punto: (29.497, 187.5)Temperatura (degC), Punto: (29.748, 187.5)Temperatura (degC), Punto: (0, 250)Temperatura (degC), Punto: (15, 250)Temperatura (degC), Punto: (27.483, 250)Temperatura (degC), Punto: (28.742, 250)Temperatura (degC), Punto: (29.497, 250)Temperatura (degC), Punto: (29.748, 250)Temperatura (degC), Punto: (0, 312.5)Temperatura (degC), Punto: (15, 312.5)Temperatura (degC), Punto: (27.483, 312.5)Temperatura (degC), Punto: (28.742, 312.5)Temperatura (degC), Punto: (29.497, 312.5)Temperatura (degC), Punto: (29.748, 312.5)Temperatura (degC), Punto: (0, 375)Temperatura (degC), Punto: (15, 375)Temperatura (degC), Punto: (27.483, 375)Temperatura (degC), Punto: (28.742, 375)Temperatura (degC), Punto: (29.497, 375)Temperatura (degC), Punto: (29.748, 375)Temperatura (degC), Punto: (0, 437.5)Temperatura (degC), Punto: (15, 437.5)Temperatura (degC), Punto: (27.483, 437.5)Temperatura (degC), Punto: (28.742, 437.5)Temperatura (degC), Punto: (29.497, 437.5)Temperatura (degC), Punto: (29.748, 437.5)Temperatura (degC), Punto: (0, 468.75)Temperatura (degC), Punto: (15, 468.75)Temperatura (degC), Punto: (27.483, 468.75)Temperatura (degC), Punto: (28.742, 468.75)Temperatura (degC), Punto: (29.497, 468.75)Temperatura (degC), Punto: (29.748, 468.75)Temperatura (degC), Punto: (0, 492.19)Temperatura (degC), Punto: (15, 492.19)Temperatura (degC), Punto: (27.483, 492.19)Temperatura (degC), Punto: (28.742, 492.19)Temperatura (degC), Punto: (29.497, 492.19)Temperatura (degC), Punto: (29.748, 492.19)
22.000                   3.0000                   1.0000                   1.4000                   6000.0                   1000.0                   0.0000                   20.000                   20.000                   20.000                   20.000                   20.028                   20.117                   20.000                   20.000                   20.000                   20.000                   20.028                   20.117                   20.000                   20.000                   20.000                   20.000                   20.028                   20.117                   20.000                   20.000                   20.000                   20.000                   20.028                   20.117                   20.000                   20.000                   20.000                   20.000                   20.027                   20.113                   20.000                   20.000                   20.000                   20.000                   20.010                   20.066                   20.000                   20.000                   20.000                   20.000                   20.001                   20.013                   20.000                   20.000                   20.000                   20.000                   20.000                   20.002                   20.000                   20.000                   20.000                   20.000                   20.000                   20.001                   20.000                   20.000                   20.000                   20.000                   20.000                   20.000
22.000                   3.0000                   1.0000                   1.4000                   6000.0                   1000.0                   5.0000                   24.608                   39.492                   114.12                   127.66                   136.22                   138.64                   24.557                   39.288                   113.15                   126.59                   135.24                   137.67                   24.683                   39.809                   114.89                   128.34                   136.94                   139.36                   24.621                   39.523                   113.44                   126.79                   135.37                   137.80                   24.424                   38.733                   109.70                   122.47                   130.66                   133.00                   22.743                   31.494                   73.782                   81.153                   85.881                   87.328                   20.933                   23.776                   35.592                   37.322                   38.441                   38.817                   20.364                   21.457                   25.533                   25.995                   26.269                   26.359                   20.229                   20.899                   23.279                   23.503                   23.615                   23.651                   20.304                   21.157                   23.630                   23.758                   23.816                   23.833
22.000                   3.0000                   1.0000                   1.4000                   6000.0                   1000.0                   10.000                   51.038                   83.281                   186.37                   202.65                   212.44                   215.29                   50.952                   83.134                   186.10                   202.41                   212.56                   215.37                   51.627                   84.556                   190.50                   206.93                   216.38                   219.18                   51.088                   83.226                   185.29                   201.47                   211.35                   214.12                   49.581                   80.269                   177.59                   193.21                   202.92                   205.65                   38.167                   56.629                   112.85                   121.28                   126.40                   127.86                   25.928                   31.644                   48.961                   51.435                   52.536                   52.908                   22.226                   24.316                   30.576                   31.443                   31.790                   31.866                   21.406                   22.675                   26.407                   26.992                   27.259                   27.328                   21.690                   23.439                   29.301                   30.354                   30.803                   30.852
22.000                   3.0000                   1.0000                   1.4000                   6000.0                   1000.0                   15.000                   91.819                   135.81                   264.68                   284.74                   296.40                   299.62                   91.700                   135.41                   260.88                   280.02                   291.27                   294.32                   93.241                   138.22                   269.74                   289.65                   300.63                   303.71                   91.496                   134.66                   258.10                   277.02                   288.30                   291.33                   87.822                   128.84                   244.64                   261.98                   272.10                   274.82                   62.033                   87.072                   155.53                   165.44                   171.16                   172.70                   34.162                   42.583                   66.349                   69.551                   70.751                   71.104                   25.433                   28.852                   39.673                   41.410                   42.217                   42.382                   23.577                   25.788                   32.692                   33.828                   34.294                   34.399                   24.464                   28.030                   39.582                   41.386                   42.089                   42.132
22.000                   3.0000                   1.0000                   1.4000                   6000.0                   1000.0                   20.000                   142.09                   191.41                   328.28                   349.07                   361.59                   364.71                   141.94                   190.98                   326.30                   346.77                   359.14                   362.23                   144.22                   194.40                   333.14                   353.98                   366.38                   369.48                   140.99                   189.36                   322.74                   342.96                   355.23                   358.29                   134.28                   179.91                   304.03                   322.53                   333.75                   336.59                   91.736                   118.98                   188.61                   198.32                   204.25                   205.91                   44.605                   53.194                   73.138                   75.542                   76.822                   77.227                   29.352                   32.623                   40.057                   40.921                   41.362                   41.481                   26.336                   28.427                   32.904                   33.397                   33.626                   33.687                   27.496                   30.547                   36.885                   37.482                   37.717                   37.745
22.000                   3.0000                   1.0000                   1.4000                   6000.0                   1000.0                   25.000                   193.23                   246.42                   389.42                   410.58                   423.51                   426.59                   193.11                   246.11                   389.85                   411.71                   425.16                   428.32                   195.84                   249.67                   393.87                   415.37                   428.71                   431.84                   191.46                   243.82                   386.01                   407.55                   420.70                   423.80                   181.50                   230.50                   361.64                   381.40                   393.57                   396.53                   121.95                   150.65                   221.65                   231.50                   237.70                   239.47                   54.952                   63.080                   79.453                   81.369                   82.711                   83.160                   32.982                   35.706                   40.133                   40.479                   40.760                   40.886                   28.824                   30.452                   32.561                   32.609                   32.672                   32.706                   29.866                   31.778                   32.987                   32.689                   32.583                   32.601
22.000                   3.0000                   1.0000                   1.4000                   6000.0                   1000.0                   30.000                   244.52                   301.21                   457.28                   481.16                   495.48                   498.75                   244.51                   301.10                   457.89                   482.25                   496.92                   500.25                   247.15                   304.28                   461.18                   485.29                   499.88                   503.18                   242.34                   298.33                   453.55                   477.60                   492.02                   495.30                   228.85                   280.92                   423.12                   444.93                   458.15                   461.25                   152.61                   182.44                   257.33                   267.92                   274.56                   276.40                   64.983                   72.741                   89.020                   91.040                   92.400                   92.852                   35.826                   38.104                   42.049                   42.435                   42.723                   42.841                   30.560                   31.815                   33.555                   33.649                   33.736                   33.773                   30.936                   32.140                   32.710                   32.526                   32.472                   32.489
22.000                   3.0000                   1.0000                   1.4000                   6000.0                   1000.0                   35.000                   295.76                   355.96                   526.44                   553.49                   569.39                   572.90                   295.87                   356.07                   526.88                   554.01                   569.97                   573.48                   298.32                   358.79                   529.81                   556.94                   572.90                   576.41                   293.20                   352.84                   521.95                   548.77                   564.56                   568.05                   276.17                   331.38                   485.56                   509.61                   523.95                   527.20                   183.35                   214.32                   293.57                   304.98                   312.09                   314.00                   74.988                   82.444                   99.174                   101.37                   102.74                   103.19                   38.529                   40.414                   44.244                   44.728                   45.033                   45.137                   32.157                   33.086                   34.770                   34.972                   35.105                   35.150                   31.793                   32.418                   33.064                   33.126                   33.173                   33.190
22.000                   3.0000                   1.0000                   1.4000                   6000.0                   1000.0                   40.000                   346.30                   410.26                   595.82                   626.21                   643.78                   647.54                   346.56                   410.59                   596.77                   627.38                   645.02                   648.75                   348.73                   412.88                   599.18                   629.90                   647.58                   651.32                   343.49                   406.96                   590.96                   621.09                   638.54                   642.26                   323.24                   382.07                   550.13                   577.00                   592.88                   596.33                   214.31                   246.82                   331.27                   343.61                   351.27                   353.27                   85.179                   92.576                   109.68                   111.97                   113.39                   113.86                   41.017                   42.657                   46.227                   46.701                   46.995                   47.093                   33.512                   34.244                   35.772                   35.985                   36.125                   36.171                   32.410                   32.704                   33.143                   33.241                   33.305                   33.322
22.000                   3.0000                   1.0000                   1.4000                   6000.0                   1000.0                   45.000                   395.80                   463.05                   660.32                   693.37                   712.40                   716.39                   396.19                   463.60                   661.97                   695.60                   714.81                   718.76                   398.06                   465.43                   663.65                   697.41                   716.65                   720.60                   392.77                   459.63                   655.73                   688.81                   707.85                   711.79                   369.64                   431.82                   612.13                   641.58                   658.84                   662.46                   245.30                   279.39                   369.07                   382.28                   390.47                   392.55                   95.532                   102.97                   120.59                   122.97                   124.45                   124.94                   43.507                   44.980                   48.412                   48.885                   49.175                   49.271                   34.839                   35.434                   36.877                   37.098                   37.243                   37.290                   33.029                   33.097                   33.426                   33.546                   33.620                   33.637
22.000                   3.0000                   1.0000                   1.4000                   6000.0                   1000.0                   50.000                   443.10                   512.68                   714.67                   748.98                   769.01                   773.17                   443.62                   513.43                   717.42                   753.09                   773.63                   777.81                   445.12                   514.75                   717.95                   753.59                   774.03                   778.18                   439.95                   509.27                   711.66                   746.93                   767.42                   771.54                   414.63                   479.60                   668.77                   700.30                   718.63                   722.37                   276.31                   312.12                   407.05                   421.07                   429.71                   431.85                   106.22                   113.92                   132.32                   134.81                   136.36                   136.86                   46.005                   47.470                   51.019                   51.507                   51.809                   51.909                   36.110                   36.689                   38.196                   38.423                   38.567                   38.614                   33.654                   33.716                   34.135                   34.248                   34.316                   34.334
22.000                   3.0000                   1.0000                   1.4000                   6000.0                   1000.0                   55.000                   487.71                   558.45                   768.08                   805.23                   825.95                   830.17                   488.35                   559.40                   772.35                   811.40                   832.93                   837.18                   489.47                   560.25                   771.77                   810.60                   831.89                   836.10                   484.49                   555.10                   765.91                   804.61                   826.22                   830.43                   457.31                   523.97                   717.44                   751.35                   770.85                   774.70                   307.13                   344.62                   444.37                   459.11                   468.13                   470.31                   117.34                   125.36                   144.56                   147.14                   148.75                   149.27                   48.617                   50.144                   53.887                   54.400                   54.717                   54.823                   37.414                   38.026                   39.628                   39.859                   40.004                   40.051                   34.390                   34.532                   35.116                   35.222                   35.285                   35.304
22.000                   3.0000                   1.0000                   1.4000                   6000.0                   1000.0                   60.000                   530.60                   601.76                   820.90                   861.88                   883.10                   887.31                   531.37                   602.94                   826.96                   870.21                   892.52                   896.76                   532.12                   603.31                   825.30                   868.13                   890.04                   894.24                   527.36                   598.53                   819.10                   862.01                   884.53                   888.75                   498.51                   566.18                   761.05                   797.55                   818.27                   822.23                   337.83                   376.99                   481.27                   496.67                   506.02                   508.25                   128.72                   137.12                   157.11                   159.79                   161.45                   161.98                   51.302                   52.933                   56.922                   57.463                   57.799                   57.913                   38.739                   39.416                   41.130                   41.366                   41.512                   41.560                   35.196                   35.474                   36.267                   36.369                   36.428                   36.448
22.000                   3.0000                   1.0000                   1.4000                   6000.0                   1000.0                   65.000                   570.04                   640.95                   877.48                   919.85                   940.52                   944.49                   570.90                   642.29                   884.36                   928.94                   950.71                   954.68                   571.31                   642.27                   881.99                   926.12                   947.46                   951.40                   566.82                   637.80                   875.60                   919.95                   942.06                   946.05                   536.79                   604.29                   807.23                   846.08                   867.31                   871.25                   367.89                   408.48                   516.82                   532.86                   542.54                   544.80                   140.55                   149.26                   169.91                   172.66                   174.37                   174.92                   54.204                   55.922                   60.065                   60.622                   60.968                   61.085                   40.190                   40.918                   42.698                   42.936                   43.083                   43.132                   36.181                   36.557                   37.478                   37.580                   37.639                   37.659
22.000                   3.0000                   1.0000                   1.4000                   6000.0                   1000.0                   70.000                   607.72                   677.99                   930.22                   972.42                   991.93                   995.51                   608.66                   679.46                   937.47                   981.55                   1002.0                   1005.5                   608.76                   679.12                   934.79                   978.49                   998.54                   1002.1                   604.57                   674.99                   928.64                   972.74                   993.63                   997.25                   573.67                   640.69                   853.75                   894.22                   915.54                   919.38                   397.54                   439.44                   551.43                   568.04                   578.01                   580.31                   152.51                   161.51                   182.73                   185.55                   187.30                   187.85                   57.194                   58.986                   63.246                   63.813                   64.166                   64.284                   41.693                   42.464                   44.292                   44.532                   44.679                   44.729                   37.226                   37.679                   38.681                   38.783                   38.842                   38.862
22.000                   3.0000                   1.0000                   1.4000                   6000.0                   1000.0                   75.000                   639.47                   707.74                   964.46                   1000.9                   1017.1                   1019.8                   640.43                   709.22                   970.61                   1007.7                   1023.9                   1026.4                   640.33                   708.77                   969.22                   1006.3                   1022.5                   1025.1                   636.53                   705.14                   965.13                   1002.9                   1019.8                   1022.5                   605.93                   671.63                   900.49                   939.59                   959.45                   962.94                   425.73                   468.49                   582.57                   599.48                   609.60                   611.90                   164.86                   174.03                   195.53                   198.38                   200.15                   200.71                   60.453                   62.275                   66.536                   67.097                   67.445                   67.562                   43.360                   44.145                   45.969                   46.207                   46.353                   46.403                   38.446                   38.894                   39.821                   39.921                   39.980                   39.999