% Model:              batchmodel_COIL_N_22_COIL_kr_1.5_COIL_kh_1_COIL_kturn_1.1_FUNZ_freq_6000_FUNZ_I_eff_1000.mph
% Version:            COMSOL 5.6.0.280
% Date:               Feb 2 2022, 09:56
% Table:              Tabella 1 - GRIGLIA_T
% COIL_N                 COIL_kr                  COIL_kh                  COIL_kturn               FUNZ_freq                FUNZ_I_eff               Time (s)                 Temperatura (degC), Punto: (0, 0)Temperatura (degC), Punto: (15, 0)Temperatura (degC), Punto: (27.483, 0)Temperatura (degC), Punto: (28.742, 0)Temperatura (degC), Punto: (29.497, 0)Temperatura (degC), Punto: (29.748, 0)Temperatura (degC), Punto: (0, 62.5)Temperatura (degC), Punto: (15, 62.5)Temperatura (degC), Punto: (27.483, 62.5)Temperatura (degC), Punto: (28.742, 62.5)Temperatura (degC), Punto: (29.497, 62.5)Temperatura (degC), Punto: (29.748, 62.5)Temperatura (degC), Punto: (0, 125)Temperatura (degC), Punto: (15, 125)Temperatura (degC), Punto: (27.483, 125)Temperatura (degC), Punto: (28.742, 125)Temperatura (degC), Punto: (29.497, 125)Temperatura (degC), Punto: (29.748, 125)Temperatura (degC), Punto: (0, 187.5)Temperatura (degC), Punto: (15, 187.5)Temperatura (degC), Punto: (27.483, 187.5)Temperatura (degC), Punto: (28.742, 187.5)Temperatura (degC), Punto: (29.497, 187.5)Temperatura (degC), Punto: (29.748, 187.5)Temperatura (degC), Punto: (0, 250)Temperatura (degC), Punto: (15, 250)Temperatura (degC), Punto: (27.483, 250)Temperatura (degC), Punto: (28.742, 250)Temperatura (degC), Punto: (29.497, 250)Temperatura (degC), Punto: (29.748, 250)Temperatura (degC), Punto: (0, 312.5)Temperatura (degC), Punto: (15, 312.5)Temperatura (degC), Punto: (27.483, 312.5)Temperatura (degC), Punto: (28.742, 312.5)Temperatura (degC), Punto: (29.497, 312.5)Temperatura (degC), Punto: (29.748, 312.5)Temperatura (degC), Punto: (0, 375)Temperatura (degC), Punto: (15, 375)Temperatura (degC), Punto: (27.483, 375)Temperatura (degC), Punto: (28.742, 375)Temperatura (degC), Punto: (29.497, 375)Temperatura (degC), Punto: (29.748, 375)Temperatura (degC), Punto: (0, 437.5)Temperatura (degC), Punto: (15, 437.5)Temperatura (degC), Punto: (27.483, 437.5)Temperatura (degC), Punto: (28.742, 437.5)Temperatura (degC), Punto: (29.497, 437.5)Temperatura (degC), Punto: (29.748, 437.5)Temperatura (degC), Punto: (0, 468.75)Temperatura (degC), Punto: (15, 468.75)Temperatura (degC), Punto: (27.483, 468.75)Temperatura (degC), Punto: (28.742, 468.75)Temperatura (degC), Punto: (29.497, 468.75)Temperatura (degC), Punto: (29.748, 468.75)Temperatura (degC), Punto: (0, 492.19)Temperatura (degC), Punto: (15, 492.19)Temperatura (degC), Punto: (27.483, 492.19)Temperatura (degC), Punto: (28.742, 492.19)Temperatura (degC), Punto: (29.497, 492.19)Temperatura (degC), Punto: (29.748, 492.19)
22.000                   1.5000                   1.0000                   1.1000                   6000.0                   1000.0                   0.0000                   20.000                   20.000                   20.000                   20.000                   20.063                   20.183                   20.000                   20.000                   20.000                   20.000                   20.063                   20.183                   20.000                   20.000                   20.000                   20.000                   20.063                   20.184                   20.000                   20.000                   20.000                   20.000                   20.063                   20.184                   20.000                   20.000                   20.000                   20.000                   20.015                   20.080                   20.000                   20.000                   20.000                   20.000                   20.000                   20.002                   20.000                   20.000                   20.000                   20.000                   20.000                   20.000                   20.000                   20.000                   20.000                   20.000                   20.000                   20.000                   20.000                   20.000                   20.000                   20.000                   20.000                   20.000                   20.000                   20.000                   20.000                   20.000                   20.000                   20.000
22.000                   1.5000                   1.0000                   1.1000                   6000.0                   1000.0                   5.0000                   25.863                   46.587                   164.48                   187.07                   201.23                   204.80                   25.874                   46.778                   166.30                   189.13                   203.43                   207.08                   25.843                   46.610                   164.95                   187.62                   201.85                   205.50                   25.869                   46.727                   165.63                   188.40                   202.77                   206.46                   22.689                   32.214                   86.498                   96.660                   103.25                   105.17                   20.021                   20.187                   22.532                   23.079                   23.396                   23.495                   20.022                   20.103                   20.494                   20.562                   20.606                   20.621                   20.006                   20.029                   20.153                   20.176                   20.190                   20.195                   20.005                   20.021                   20.107                   20.123                   20.133                   20.136                   20.004                   20.018                   20.087                   20.099                   20.107                   20.110
22.000                   1.5000                   1.0000                   1.1000                   6000.0                   1000.0                   10.000                   62.064                   111.78                   277.73                   305.38                   322.14                   326.15                   62.549                   113.16                   282.58                   310.66                   327.71                   331.80                   62.090                   111.91                   277.98                   305.61                   322.44                   326.44                   62.428                   112.78                   281.33                   309.44                   326.66                   330.78                   40.900                   65.870                   145.76                   158.03                   165.66                   167.76                   20.816                   21.961                   26.073                   26.715                   27.080                   27.195                   20.145                   20.316                   20.829                   20.906                   20.954                   20.971                   20.046                   20.100                   20.268                   20.293                   20.309                   20.314                   20.033                   20.071                   20.185                   20.202                   20.213                   20.216                   20.028                   20.059                   20.150                   20.163                   20.171                   20.174
22.000                   1.5000                   1.0000                   1.1000                   6000.0                   1000.0                   15.000                   124.09                   190.61                   395.54                   430.21                   450.57                   455.26                   125.15                   192.43                   398.14                   432.77                   453.15                   457.79                   124.10                   190.58                   394.56                   429.07                   449.44                   454.13                   124.86                   192.03                   398.45                   433.56                   454.39                   459.08                   74.586                   109.30                   206.04                   220.52                   229.47                   232.01                   22.944                   24.807                   29.691                   30.369                   30.782                   30.920                   20.395                   20.640                   21.303                   21.399                   21.460                   21.481                   20.119                   20.192                   20.388                   20.416                   20.434                   20.440                   20.084                   20.133                   20.262                   20.280                   20.291                   20.295                   20.071                   20.111                   20.211                   20.224                   20.233                   20.236
22.000                   1.5000                   1.0000                   1.1000                   6000.0                   1000.0                   20.000                   194.84                   271.14                   502.67                   541.57                   563.42                   568.18                   196.11                   272.83                   504.74                   543.69                   565.59                   570.35                   194.75                   270.84                   500.59                   539.03                   560.70                   565.46                   195.72                   272.60                   505.75                   545.17                   567.63                   572.47                   115.83                   156.73                   268.06                   284.70                   294.90                   297.66                   26.210                   28.517                   34.061                   34.790                   35.248                   35.403                   20.766                   21.082                   21.881                   21.991                   22.060                   22.083                   20.214                   20.300                   20.517                   20.548                   20.567                   20.573                   20.146                   20.202                   20.341                   20.360                   20.372                   20.376                   20.122                   20.167                   20.273                   20.287                   20.296                   20.299
22.000                   1.5000                   1.0000                   1.1000                   6000.0                   1000.0                   25.000                   268.21                   353.27                   622.77                   671.69                   699.48                   705.13                   269.39                   354.58                   623.61                   672.37                   700.16                   705.80                   268.01                   352.86                   621.76                   670.93                   698.87                   704.50                   268.90                   354.46                   625.66                   675.13                   703.17                   708.83                   160.84                   207.16                   335.73                   355.43                   367.54                   370.51                   30.420                   33.115                   39.585                   40.465                   40.986                   41.156                   21.215                   21.568                   22.383                   22.488                   22.552                   22.573                   20.323                   20.419                   20.656                   20.688                   20.709                   20.716                   20.216                   20.276                   20.426                   20.446                   20.459                   20.463                   20.180                   20.228                   20.340                   20.354                   20.364                   20.367
22.000                   1.5000                   1.0000                   1.1000                   6000.0                   1000.0                   30.000                   340.27                   431.76                   717.56                   771.07                   801.95                   808.10                   341.30                   432.85                   719.89                   774.20                   805.57                   811.79                   340.07                   431.53                   719.25                   774.74                   806.63                   812.81                   340.67                   432.75                   722.53                   778.47                   810.66                   816.90                   207.51                   258.71                   401.48                   422.88                   435.63                   438.73                   35.595                   38.625                   45.690                   46.600                   47.151                   47.334                   21.712                   22.072                   22.851                   22.946                   23.005                   23.024                   20.445                   20.548                   20.797                   20.831                   20.852                   20.859                   20.292                   20.356                   20.513                   20.534                   20.547                   20.552                   20.242                   20.293                   20.409                   20.424                   20.433                   20.436
22.000                   1.5000                   1.0000                   1.1000                   6000.0                   1000.0                   35.000                   408.29                   503.42                   818.84                   886.04                   919.58                   925.58                   409.14                   504.38                   821.39                   888.85                   922.44                   928.45                   408.16                   503.41                   820.54                   888.17                   921.87                   927.88                   408.32                   504.12                   823.58                   891.47                   925.18                   931.19                   254.60                   309.50                   462.48                   485.80                   499.68                   502.86                   42.009                   45.294                   52.718                   53.665                   54.252                   54.448                   22.284                   22.657                   23.527                   23.645                   23.718                   23.743                   20.580                   20.689                   20.950                   20.986                   21.008                   21.015                   20.375                   20.442                   20.604                   20.626                   20.639                   20.644                   20.310                   20.362                   20.481                   20.496                   20.505                   20.509
22.000                   1.5000                   1.0000                   1.1000                   6000.0                   1000.0                   40.000                   471.12                   568.65                   920.36                   986.65                   1016.4                   1021.3                   471.85                   569.50                   922.56                   988.81                   1018.5                   1023.3                   471.08                   568.76                   921.29                   987.42                   1017.1                   1022.0                   470.77                   569.05                   925.70                   992.42                   1022.1                   1026.9                   300.04                   356.83                   511.41                   534.44                   547.97                   551.02                   49.359                   52.811                   60.445                   61.405                   61.990                   62.185                   22.930                   23.322                   24.231                   24.350                   24.424                   24.449                   20.725                   20.836                   21.098                   21.133                   21.155                   21.162                   20.463                   20.531                   20.693                   20.714                   20.727                   20.732                   20.382                   20.434                   20.553                   20.568                   20.577                   20.580
22.000                   1.5000                   1.0000                   1.1000                   6000.0                   1000.0                   45.000                   530.28                   627.60                   987.59                   1039.4                   1057.8                   1060.1                   530.98                   628.71                   986.15                   1033.1                   1049.7                   1051.8                   530.31                   627.25                   950.58                   992.82                   1011.6                   1014.6                   529.67                   628.65                   1019.5                   1070.8                   1085.2                   1086.6                   343.19                   399.50                   539.62                   558.07                   568.74                   571.18                   57.244                   60.665                   67.676                   68.484                   68.970                   69.130                   23.628                   24.018                   24.857                   24.959                   25.020                   25.041                   20.873                   20.982                   21.223                   21.253                   21.271                   21.277                   20.552                   20.619                   20.770                   20.789                   20.801                   20.804                   20.455                   20.506                   20.619                   20.633                   20.642                   20.645
22.000                   1.5000                   1.0000                   1.1000                   6000.0                   1000.0                   50.000                   582.29                   676.69                   1052.3                   1088.0                   1097.3                   1097.9                   583.26                   678.15                   1021.7                   1055.2                   1065.2                   1066.1                   582.29                   673.73                   951.35                   981.21                   995.05                   997.38                   581.99                   679.79                   1065.9                   1097.6                   1105.0                   1105.2                   380.70                   433.51                   559.05                   575.41                   584.98                   587.19                   65.530                   68.721                   75.151                   75.899                   76.352                   76.502                   24.384                   24.748                   25.519                   25.613                   25.670                   25.689                   21.020                   21.122                   21.344                   21.372                   21.389                   21.395                   20.641                   20.704                   20.846                   20.864                   20.875                   20.879                   20.528                   20.577                   20.686                   20.699                   20.708                   20.710
22.000                   1.5000                   1.0000                   1.1000                   6000.0                   1000.0                   55.000                   628.16                   718.98                   1086.9                   1110.5                   1115.2                   1115.0                   629.44                   719.93                   1045.2                   1070.2                   1076.9                   1077.2                   627.97                   712.40                   962.44                   986.13                   997.14                   998.96                   628.42                   723.61                   1086.0                   1106.7                   1110.8                   1110.6                   413.90                   462.83                   577.96                   593.18                   602.16                   604.24                   73.933                   76.903                   82.960                   83.680                   84.118                   84.264                   25.182                   25.521                   26.248                   26.339                   26.394                   26.413                   21.165                   21.260                   21.471                   21.498                   21.514                   21.520                   20.728                   20.789                   20.925                   20.942                   20.953                   20.956                   20.601                   20.649                   20.754                   20.767                   20.775                   20.778
22.000                   1.5000                   1.0000                   1.1000                   6000.0                   1000.0                   60.000                   666.24                   755.72                   1095.5                   1112.6                   1115.4                   1115.0                   667.66                   755.78                   1061.8                   1081.4                   1086.0                   1085.9                   665.73                   745.11                   980.77                   1000.1                   1008.6                   1009.9                   667.04                   762.00                   1094.9                   1110.1                   1112.5                   1112.0                   442.44                   487.89                   594.65                   608.85                   617.26                   619.21                   82.377                   85.171                   90.937                   91.630                   92.052                   92.192                   26.048                   26.368                   27.062                   27.149                   27.203                   27.221                   21.310                   21.401                   21.603                   21.629                   21.645                   21.651                   20.815                   20.874                   21.005                   21.022                   21.033                   21.036                   20.674                   20.720                   20.823                   20.836                   20.844                   20.847
22.000                   1.5000                   1.0000                   1.1000                   6000.0                   1000.0                   65.000                   694.58                   789.88                   1091.7                   1105.7                   1107.9                   1107.4                   695.86                   789.86                   1070.0                   1085.8                   1089.0                   1088.7                   693.81                   776.97                   1005.8                   1022.5                   1028.7                   1029.4                   695.69                   797.98                   1095.5                   1107.8                   1109.3                   1108.7                   466.01                   508.50                   607.87                   621.08                   628.92                   630.74                   90.765                   93.414                   98.906                   99.568                   99.971                   100.10                   27.020                   27.325                   27.990                   28.073                   28.125                   28.142                   21.460                   21.547                   21.742                   21.767                   21.782                   21.788                   20.903                   20.960                   21.088                   21.104                   21.115                   21.118                   20.748                   20.793                   20.894                   20.907                   20.914                   20.917
22.000                   1.5000                   1.0000                   1.1000                   6000.0                   1000.0                   70.000                   719.26                   823.28                   1089.1                   1100.6                   1102.1                   1101.5                   720.47                   823.44                   1076.8                   1089.3                   1091.4                   1090.9                   718.25                   810.03                   1030.5                   1044.7                   1048.9                   1049.0                   720.68                   832.38                   1096.0                   1105.8                   1106.7                   1106.0                   487.70                   527.43                   620.05                   632.38                   639.70                   641.40                   99.070                   101.59                   106.83                   107.46                   107.85                   107.98                   28.052                   28.344                   28.982                   29.062                   29.111                   29.128                   21.614                   21.697                   21.886                   21.910                   21.925                   21.930                   20.993                   21.047                   21.172                   21.188                   21.198                   21.201                   20.822                   20.866                   20.965                   20.978                   20.986                   20.988
22.000                   1.5000                   1.0000                   1.1000                   6000.0                   1000.0                   75.000                   739.66                   855.81                   1088.1                   1097.5                   1098.4                   1097.7                   740.87                   856.45                   1082.0                   1091.8                   1092.9                   1092.3                   738.42                   844.49                   1055.0                   1066.7                   1069.1                   1068.8                   741.37                   864.91                   1096.4                   1104.4                   1104.7                   1103.9                   507.18                   544.38                   631.00                   642.58                   649.45                   651.05                   107.28                   109.68                   114.70                   115.31                   115.68                   115.80                   29.154                   29.435                   30.049                   30.126                   30.174                   30.190                   21.772                   21.853                   22.035                   22.059                   22.073                   22.078                   21.083                   21.136                   21.258                   21.274                   21.284                   21.287                   20.897                   20.941                   21.038                   21.051                   21.058                   21.061