% Model:              batchmodel_COIL_N_22_COIL_kr_3_COIL_kh_1_COIL_kturn_1.4_FUNZ_freq_2000_FUNZ_I_eff_1000.mph
% Version:            COMSOL 5.6.0.280
% Date:               Feb 3 2022, 02:34
% Table:              Tabella 1 - GRIGLIA_T
% COIL_N                 COIL_kr                  COIL_kh                  COIL_kturn               FUNZ_freq                FUNZ_I_eff               Time (s)                 Temperatura (degC), Punto: (0, 0)Temperatura (degC), Punto: (15, 0)Temperatura (degC), Punto: (25.641, 0)Temperatura (degC), Punto: (27.821, 0)Temperatura (degC), Punto: (29.128, 0)Temperatura (degC), Punto: (29.564, 0)Temperatura (degC), Punto: (0, 62.5)Temperatura (degC), Punto: (15, 62.5)Temperatura (degC), Punto: (25.641, 62.5)Temperatura (degC), Punto: (27.821, 62.5)Temperatura (degC), Punto: (29.128, 62.5)Temperatura (degC), Punto: (29.564, 62.5)Temperatura (degC), Punto: (0, 125)Temperatura (degC), Punto: (15, 125)Temperatura (degC), Punto: (25.641, 125)Temperatura (degC), Punto: (27.821, 125)Temperatura (degC), Punto: (29.128, 125)Temperatura (degC), Punto: (29.564, 125)Temperatura (degC), Punto: (0, 187.5)Temperatura (degC), Punto: (15, 187.5)Temperatura (degC), Punto: (25.641, 187.5)Temperatura (degC), Punto: (27.821, 187.5)Temperatura (degC), Punto: (29.128, 187.5)Temperatura (degC), Punto: (29.564, 187.5)Temperatura (degC), Punto: (0, 250)Temperatura (degC), Punto: (15, 250)Temperatura (degC), Punto: (25.641, 250)Temperatura (degC), Punto: (27.821, 250)Temperatura (degC), Punto: (29.128, 250)Temperatura (degC), Punto: (29.564, 250)Temperatura (degC), Punto: (0, 312.5)Temperatura (degC), Punto: (15, 312.5)Temperatura (degC), Punto: (25.641, 312.5)Temperatura (degC), Punto: (27.821, 312.5)Temperatura (degC), Punto: (29.128, 312.5)Temperatura (degC), Punto: (29.564, 312.5)Temperatura (degC), Punto: (0, 375)Temperatura (degC), Punto: (15, 375)Temperatura (degC), Punto: (25.641, 375)Temperatura (degC), Punto: (27.821, 375)Temperatura (degC), Punto: (29.128, 375)Temperatura (degC), Punto: (29.564, 375)Temperatura (degC), Punto: (0, 437.5)Temperatura (degC), Punto: (15, 437.5)Temperatura (degC), Punto: (25.641, 437.5)Temperatura (degC), Punto: (27.821, 437.5)Temperatura (degC), Punto: (29.128, 437.5)Temperatura (degC), Punto: (29.564, 437.5)Temperatura (degC), Punto: (0, 468.75)Temperatura (degC), Punto: (15, 468.75)Temperatura (degC), Punto: (25.641, 468.75)Temperatura (degC), Punto: (27.821, 468.75)Temperatura (degC), Punto: (29.128, 468.75)Temperatura (degC), Punto: (29.564, 468.75)Temperatura (degC), Punto: (0, 492.19)Temperatura (degC), Punto: (15, 492.19)Temperatura (degC), Punto: (25.641, 492.19)Temperatura (degC), Punto: (27.821, 492.19)Temperatura (degC), Punto: (29.128, 492.19)Temperatura (degC), Punto: (29.564, 492.19)
22.000                   3.0000                   1.0000                   1.4000                   2000.0                   1000.0                   0.0000                   20.000                   20.000                   20.000                   20.000                   20.008                   20.038                   20.000                   20.000                   20.000                   20.000                   20.008                   20.038                   20.000                   20.000                   20.000                   20.000                   20.008                   20.038                   20.000                   20.000                   20.000                   20.000                   20.008                   20.038                   20.000                   20.000                   20.000                   20.000                   20.008                   20.036                   20.000                   20.000                   20.000                   20.000                   20.002                   20.021                   20.000                   20.000                   20.000                   20.000                   20.000                   20.004                   20.000                   20.000                   20.000                   20.000                   20.000                   20.000                   20.000                   20.000                   20.000                   20.000                   20.000                   20.000                   20.000                   20.000                   20.000                   20.000                   20.000                   20.000
22.000                   3.0000                   1.0000                   1.4000                   2000.0                   1000.0                   5.0000                   22.380                   30.028                   62.238                   74.644                   81.997                   84.081                   22.385                   30.051                   62.364                   74.803                   82.112                   84.220                   22.398                   30.132                   63.062                   75.827                   83.378                   85.528                   22.377                   29.986                   61.862                   74.112                   81.516                   83.649                   22.210                   29.309                   59.114                   70.725                   78.142                   80.232                   20.901                   24.261                   40.931                   47.258                   50.968                   52.169                   20.146                   20.961                   29.316                   32.288                   33.211                   33.392                   19.736                   19.342                   22.879                   25.041                   25.428                   25.496                   20.023                   20.296                   23.384                   25.030                   25.527                   25.604                   19.978                   20.074                   21.820                   22.812                   23.318                   23.429
22.000                   3.0000                   1.0000                   1.4000                   2000.0                   1000.0                   10.000                   37.173                   54.655                   98.266                   111.39                   119.62                   121.92                   37.195                   54.666                   98.127                   111.15                   119.24                   121.51                   37.401                   55.171                   99.573                   112.82                   120.89                   123.11                   37.070                   54.368                   97.526                   110.53                   118.66                   120.94                   36.132                   52.627                   93.701                   106.13                   114.05                   116.32                   28.764                   38.467                   63.819                   71.142                   75.378                   76.676                   23.179                   27.332                   39.535                   42.269                   43.473                   43.777                   21.072                   23.291                   30.718                   32.513                   33.019                   33.121                   21.462                   23.421                   28.744                   30.058                   30.480                   30.561                   21.021                   22.357                   26.019                   27.039                   27.458                   27.558
22.000                   3.0000                   1.0000                   1.4000                   2000.0                   1000.0                   15.000                   59.436                   81.885                   129.17                   142.63                   151.34                   153.76                   59.478                   81.917                   129.20                   142.70                   151.47                   153.91                   59.875                   82.490                   129.78                   143.01                   151.58                   153.98                   59.121                   81.228                   127.52                   140.57                   148.83                   151.18                   56.952                   77.933                   121.40                   133.45                   141.06                   143.21                   41.713                   54.870                   82.446                   89.955                   94.755                   96.220                   28.257                   33.518                   44.315                   47.067                   48.570                   49.060                   24.005                   27.207                   33.804                   35.111                   35.674                   35.830                   23.774                   26.048                   29.937                   30.710                   31.006                   31.082                   22.878                   24.522                   27.194                   27.686                   27.981                   28.061
22.000                   3.0000                   1.0000                   1.4000                   2000.0                   1000.0                   20.000                   85.674                   110.29                   160.68                   174.88                   183.92                   186.39                   85.733                   110.34                   160.72                   174.95                   184.01                   186.49                   86.174                   110.84                   161.25                   175.35                   184.27                   186.72                   85.007                   109.18                   158.62                   172.54                   181.27                   183.70                   81.076                   103.77                   149.68                   162.53                   170.66                   172.93                   58.009                   73.093                   103.42                   111.55                   116.57                   118.08                   34.841                   40.895                   53.033                   55.808                   57.254                   57.696                   27.951                   31.656                   38.730                   40.139                   40.620                   40.731                   26.448                   28.824                   33.043                   33.935                   34.264                   34.339                   25.174                   26.948                   29.886                   30.473                   30.733                   30.788
22.000                   3.0000                   1.0000                   1.4000                   2000.0                   1000.0                   25.000                   113.15                   139.14                   191.98                   206.82                   216.22                   218.75                   113.22                   139.21                   192.03                   206.87                   216.26                   218.79                   113.70                   139.84                   193.16                   208.13                   217.65                   220.20                   112.22                   137.99                   190.99                   206.13                   215.76                   218.29                   106.34                   130.47                   179.97                   194.14                   203.30                   205.78                   75.413                   91.396                   122.56                   130.76                   135.77                   137.22                   41.931                   48.183                   60.365                   62.966                   64.179                   64.529                   31.994                   35.758                   43.029                   44.495                   44.977                   45.086                   29.093                   31.388                   35.538                   36.431                   36.723                   36.767                   27.490                   29.224                   32.115                   32.699                   32.923                   32.937
22.000                   3.0000                   1.0000                   1.4000                   2000.0                   1000.0                   30.000                   141.29                   168.52                   224.04                   239.72                   249.58                   252.18                   141.38                   168.59                   224.05                   239.72                   249.60                   252.21                   142.03                   169.61                   226.24                   242.09                   251.97                   254.58                   140.36                   167.74                   224.43                   240.64                   250.69                   253.29                   132.46                   158.12                   210.91                   225.92                   235.44                   237.98                   93.578                   110.36                   143.91                   152.77                   158.01                   159.51                   49.560                   56.282                   70.963                   74.022                   75.238                   75.582                   36.345                   40.699                   51.174                   53.662                   54.290                   54.401                   31.922                   34.529                   40.423                   42.084                   42.562                   42.634                   29.946                   31.888                   35.799                   36.820                   37.264                   37.307
22.000                   3.0000                   1.0000                   1.4000                   2000.0                   1000.0                   35.000                   169.81                   198.09                   255.64                   271.98                   282.32                   285.00                   169.92                   198.19                   255.74                   272.08                   282.43                   285.10                   170.83                   199.51                   257.83                   274.31                   284.70                   287.38                   169.05                   197.61                   255.78                   272.19                   282.51                   285.18                   159.07                   185.80                   239.86                   255.02                   264.58                   267.09                   111.92                   128.91                   161.53                   170.12                   175.49                   177.05                   57.446                   63.917                   75.536                   78.088                   79.523                   79.979                   40.698                   44.718                   51.416                   52.578                   53.061                   53.185                   34.821                   37.222                   41.105                   41.758                   42.021                   42.083                   32.446                   34.235                   36.913                   37.332                   37.488                   37.517
22.000                   3.0000                   1.0000                   1.4000                   2000.0                   1000.0                   40.000                   198.53                   227.78                   287.62                   304.65                   315.33                   318.04                   198.67                   227.93                   287.82                   304.85                   315.54                   318.24                   199.90                   229.69                   290.64                   307.89                   318.68                   321.41                   198.06                   227.73                   288.41                   305.54                   316.11                   318.83                   185.97                   213.72                   269.89                   285.65                   295.50                   298.05                   130.50                   148.00                   182.00                   190.95                   196.39                   197.98                   65.868                   72.760                   86.141                   89.104                   90.626                   91.099                   45.385                   49.762                   58.062                   59.659                   60.192                   60.321                   38.025                   40.675                   45.537                   46.561                   46.930                   46.995                   35.188                   37.159                   40.477                   41.138                   41.404                   41.443
22.000                   3.0000                   1.0000                   1.4000                   2000.0                   1000.0                   45.000                   227.33                   257.63                   320.03                   337.84                   348.91                   351.66                   227.54                   257.87                   320.40                   338.25                   349.37                   352.13                   229.23                   260.27                   324.46                   342.71                   354.03                   356.81                   227.39                   258.29                   322.21                   340.46                   351.56                   354.34                   213.20                   242.00                   300.83                   317.49                   327.87                   330.50                   149.61                   167.89                   204.11                   213.56                   219.12                   220.71                   75.480                   83.295                   100.01                   103.60                   105.20                   105.67                   50.812                   55.907                   66.971                   69.360                   69.931                   70.031                   41.939                   45.128                   51.810                   53.520                   54.025                   54.103                   38.547                   40.944                   45.520                   46.622                   47.107                   47.164
22.000                   3.0000                   1.0000                   1.4000                   2000.0                   1000.0                   50.000                   256.34                   287.93                   353.53                   372.39                   384.08                   386.91                   256.60                   288.24                   353.96                   372.88                   384.61                   387.45                   258.54                   290.83                   358.04                   377.29                   389.19                   392.06                   256.62                   288.74                   355.57                   374.80                   386.50                   389.36                   240.11                   269.88                   331.07                   348.52                   359.38                   362.08                   168.06                   186.54                   223.19                   232.87                   238.67                   240.31                   84.041                   91.538                   107.11                   110.51                   112.11                   112.59                   54.681                   59.250                   68.820                   70.881                   71.412                   71.513                   44.800                   47.658                   53.416                   54.866                   55.303                   55.376                   41.046                   43.187                   47.119                   48.043                   48.451                   48.501
22.000                   3.0000                   1.0000                   1.4000                   2000.0                   1000.0                   55.000                   285.41                   318.40                   387.41                   407.44                   419.82                   422.76                   285.73                   318.76                   387.88                   407.95                   420.36                   423.30                   287.85                   321.39                   391.52                   411.79                   424.29                   427.24                   285.81                   319.15                   388.78                   408.92                   421.27                   424.21                   266.89                   297.61                   361.05                   379.25                   390.58                   393.34                   186.26                   204.74                   241.16                   250.98                   257.06                   258.76                   92.218                   98.945                   111.75                   114.66                   116.23                   116.72                   57.980                   61.571                   68.094                   69.420                   69.880                   69.995                   47.277                   49.484                   53.320                   54.165                   54.458                   54.521                   43.232                   44.868                   47.460                   47.980                   48.206                   48.239
22.000                   3.0000                   1.0000                   1.4000                   2000.0                   1000.0                   60.000                   314.47                   348.83                   421.19                   442.35                   455.39                   458.42                   314.84                   349.24                   421.69                   442.87                   455.92                   458.96                   317.08                   351.88                   424.91                   446.19                   459.26                   462.29                   314.92                   349.47                   421.88                   442.94                   455.90                   458.91                   293.58                   325.25                   390.97                   409.93                   421.71                   424.53                   204.35                   222.88                   259.29                   269.28                   275.64                   277.39                   100.22                   106.25                   116.71                   119.23                   120.78                   121.28                   61.045                   63.736                   67.660                   68.379                   68.779                   68.904                   49.567                   51.171                   53.353                   53.700                   53.875                   53.928                   45.255                   46.418                   47.846                   48.031                   48.106                   48.126
22.000                   3.0000                   1.0000                   1.4000                   2000.0                   1000.0                   65.000                   343.43                   379.15                   454.59                   476.75                   490.28                   493.36                   343.83                   379.58                   455.08                   477.25                   490.79                   493.87                   346.06                   382.08                   457.96                   480.18                   493.74                   496.81                   343.69                   379.44                   454.59                   476.57                   489.99                   493.04                   319.89                   352.57                   420.67                   440.40                   452.59                   455.44                   222.01                   240.78                   277.99                   288.32                   294.91                   296.70                   107.55                   113.14                   122.98                   125.44                   126.99                   127.49                   63.197                   65.295                   68.364                   68.980                   69.360                   69.484                   51.126                   52.308                   53.889                   54.157                   54.310                   54.358                   46.646                   47.462                   48.405                   48.523                   48.576                   48.592
22.000                   3.0000                   1.0000                   1.4000                   2000.0                   1000.0                   70.000                   372.18                   409.26                   487.80                   510.97                   525.00                   528.13                   372.62                   409.72                   488.29                   511.46                   525.51                   528.63                   374.82                   412.10                   490.89                   514.09                   528.13                   531.25                   372.23                   409.19                   487.14                   510.06                   523.95                   527.05                   346.02                   379.72                   450.25                   470.76                   483.36                   486.25                   239.62                   258.66                   296.75                   307.43                   314.25                   316.08                   114.88                   120.10                   129.43                   131.85                   133.40                   133.90                   65.319                   66.899                   69.239                   69.772                   70.135                   70.258                   52.634                   53.445                   54.505                   54.707                   54.841                   54.886                   47.984                   48.494                   49.013                   49.074                   49.108                   49.122
22.000                   3.0000                   1.0000                   1.4000                   2000.0                   1000.0                   75.000                   400.10                   438.54                   520.24                   544.47                   559.03                   562.20                   400.59                   439.06                   520.80                   545.04                   559.61                   562.79                   402.75                   441.37                   523.33                   547.61                   562.20                   565.36                   399.85                   438.09                   519.06                   543.00                   557.41                   560.55                   371.41                   406.19                   479.33                   500.69                   513.71                   516.64                   257.04                   276.51                   315.70                   326.77                   333.84                   335.72                   122.20                   127.31                   136.60                   139.06                   140.64                   141.15                   67.326                   68.689                   70.808                   71.333                   71.700                   71.825                   53.935                   54.576                   55.445                   55.633                   55.764                   55.808                   49.110                   49.474                   49.823                   49.865                   49.893                   49.906