% Model:              batchmodel_COIL_N_22_COIL_kr_3_COIL_kh_3_COIL_kturn_1.7_FUNZ_freq_2000_FUNZ_I_eff_1000.mph
% Version:            COMSOL 5.6.0.280
% Date:               Feb 3 2022, 08:52
% Table:              Tabella 1 - GRIGLIA_T
% COIL_N                 COIL_kr                  COIL_kh                  COIL_kturn               FUNZ_freq                FUNZ_I_eff               Time (s)                 Temperatura (degC), Punto: (0, 0)Temperatura (degC), Punto: (15, 0)Temperatura (degC), Punto: (25.641, 0)Temperatura (degC), Punto: (27.821, 0)Temperatura (degC), Punto: (29.128, 0)Temperatura (degC), Punto: (29.564, 0)Temperatura (degC), Punto: (0, 62.5)Temperatura (degC), Punto: (15, 62.5)Temperatura (degC), Punto: (25.641, 62.5)Temperatura (degC), Punto: (27.821, 62.5)Temperatura (degC), Punto: (29.128, 62.5)Temperatura (degC), Punto: (29.564, 62.5)Temperatura (degC), Punto: (0, 125)Temperatura (degC), Punto: (15, 125)Temperatura (degC), Punto: (25.641, 125)Temperatura (degC), Punto: (27.821, 125)Temperatura (degC), Punto: (29.128, 125)Temperatura (degC), Punto: (29.564, 125)Temperatura (degC), Punto: (0, 187.5)Temperatura (degC), Punto: (15, 187.5)Temperatura (degC), Punto: (25.641, 187.5)Temperatura (degC), Punto: (27.821, 187.5)Temperatura (degC), Punto: (29.128, 187.5)Temperatura (degC), Punto: (29.564, 187.5)Temperatura (degC), Punto: (0, 250)Temperatura (degC), Punto: (15, 250)Temperatura (degC), Punto: (25.641, 250)Temperatura (degC), Punto: (27.821, 250)Temperatura (degC), Punto: (29.128, 250)Temperatura (degC), Punto: (29.564, 250)Temperatura (degC), Punto: (0, 312.5)Temperatura (degC), Punto: (15, 312.5)Temperatura (degC), Punto: (25.641, 312.5)Temperatura (degC), Punto: (27.821, 312.5)Temperatura (degC), Punto: (29.128, 312.5)Temperatura (degC), Punto: (29.564, 312.5)Temperatura (degC), Punto: (0, 375)Temperatura (degC), Punto: (15, 375)Temperatura (degC), Punto: (25.641, 375)Temperatura (degC), Punto: (27.821, 375)Temperatura (degC), Punto: (29.128, 375)Temperatura (degC), Punto: (29.564, 375)Temperatura (degC), Punto: (0, 437.5)Temperatura (degC), Punto: (15, 437.5)Temperatura (degC), Punto: (25.641, 437.5)Temperatura (degC), Punto: (27.821, 437.5)Temperatura (degC), Punto: (29.128, 437.5)Temperatura (degC), Punto: (29.564, 437.5)Temperatura (degC), Punto: (0, 468.75)Temperatura (degC), Punto: (15, 468.75)Temperatura (degC), Punto: (25.641, 468.75)Temperatura (degC), Punto: (27.821, 468.75)Temperatura (degC), Punto: (29.128, 468.75)Temperatura (degC), Punto: (29.564, 468.75)Temperatura (degC), Punto: (0, 492.19)Temperatura (degC), Punto: (15, 492.19)Temperatura (degC), Punto: (25.641, 492.19)Temperatura (degC), Punto: (27.821, 492.19)Temperatura (degC), Punto: (29.128, 492.19)Temperatura (degC), Punto: (29.564, 492.19)
22.000                   3.0000                   3.0000                   1.7000                   2000.0                   1000.0                   0.0000                   20.000                   20.000                   20.000                   20.000                   20.000                   20.004                   20.000                   20.000                   20.000                   20.000                   20.000                   20.004                   20.000                   20.000                   20.000                   20.000                   20.000                   20.004                   20.000                   20.000                   20.000                   20.000                   20.000                   20.004                   20.000                   20.000                   20.000                   20.000                   20.000                   20.004                   20.000                   20.000                   20.000                   20.000                   20.000                   20.004                   20.000                   20.000                   20.000                   20.000                   20.000                   20.004                   20.000                   20.000                   20.000                   20.000                   20.000                   20.004                   20.000                   20.000                   20.000                   20.000                   20.000                   20.003                   20.000                   20.000                   20.000                   20.000                   20.000                   20.001
22.000                   3.0000                   3.0000                   1.7000                   2000.0                   1000.0                   5.0000                   20.255                   20.857                   23.247                   24.203                   25.377                   25.793                   20.363                   21.292                   25.288                   26.909                   28.086                   28.477                   20.322                   21.160                   24.867                   26.450                   27.648                   28.009                   20.324                   21.161                   24.794                   26.209                   27.371                   27.765                   20.359                   21.274                   25.173                   26.678                   27.930                   28.348                   20.309                   21.070                   24.319                   25.643                   26.854                   27.254                   20.368                   21.288                   25.101                   26.589                   27.677                   28.046                   20.343                   21.231                   25.113                   26.697                   27.886                   28.253                   20.316                   21.126                   24.537                   25.824                   26.835                   27.180                   20.254                   20.798                   22.709                   23.332                   23.853                   24.097
22.000                   3.0000                   3.0000                   1.7000                   2000.0                   1000.0                   10.000                   22.064                   24.196                   30.267                   32.369                   33.497                   33.810                   22.435                   24.967                   31.869                   34.140                   35.432                   35.789                   22.390                   25.019                   32.772                   35.547                   37.116                   37.581                   22.249                   24.581                   30.888                   32.928                   34.063                   34.386                   22.465                   25.005                   31.761                   33.885                   35.094                   35.475                   22.265                   24.574                   30.940                   33.078                   34.328                   34.724                   22.543                   25.247                   33.084                   35.930                   37.454                   37.966                   22.404                   24.975                   32.265                   34.799                   36.093                   36.437                   22.181                   24.471                   30.915                   33.155                   34.505                   34.871                   22.056                   24.228                   30.070                   31.882                   32.531                   32.670
22.000                   3.0000                   3.0000                   1.7000                   2000.0                   1000.0                   15.000                   24.990                   27.932                   34.356                   36.179                   37.184                   37.486                   25.661                   29.078                   36.597                   38.766                   40.027                   40.380                   25.691                   29.299                   37.708                   40.320                   41.985                   42.492                   25.252                   28.342                   34.905                   36.668                   37.631                   37.905                   25.692                   29.022                   36.011                   37.882                   38.981                   39.333                   25.384                   28.538                   35.404                   37.353                   38.500                   38.861                   25.899                   29.528                   37.861                   40.366                   41.745                   42.196                   25.556                   28.925                   36.367                   38.525                   39.664                   39.992                   25.073                   28.089                   34.722                   36.640                   37.848                   38.232                   24.908                   27.861                   33.972                   35.456                   36.056                   36.213
22.000                   3.0000                   3.0000                   1.7000                   2000.0                   1000.0                   20.000                   28.731                   31.972                   38.448                   40.209                   41.345                   41.728                   29.549                   33.132                   40.184                   42.051                   43.234                   43.631                   29.668                   33.394                   40.727                   42.632                   43.825                   44.219                   29.001                   32.323                   38.887                   40.654                   41.796                   42.182                   29.599                   33.124                   40.006                   41.841                   43.015                   43.409                   29.259                   32.651                   39.339                   41.130                   42.277                   42.663                   29.880                   33.603                   40.922                   42.830                   44.026                   44.424                   29.325                   32.821                   39.669                   41.473                   42.623                   43.010                   28.516                   31.630                   37.748                   39.372                   40.403                   40.749                   28.069                   30.833                   35.539                   36.590                   37.225                   37.435
22.000                   3.0000                   3.0000                   1.7000                   2000.0                   1000.0                   25.000                   32.616                   35.958                   42.478                   44.246                   45.393                   45.781                   33.471                   37.032                   43.871                   45.693                   46.872                   47.271                   33.639                   37.269                   44.174                   45.986                   47.159                   47.554                   32.874                   36.257                   42.804                   44.567                   45.719                   46.109                   33.548                   37.089                   43.898                   45.723                   46.905                   47.303                   33.215                   36.643                   43.244                   45.014                   46.165                   46.555                   33.848                   37.482                   44.414                   46.247                   47.426                   47.824                   33.092                   36.539                   43.131                   44.876                   46.015                   46.404                   31.927                   34.981                   40.863                   42.444                   43.468                   43.817                   31.038                   33.498                   37.617                   38.597                   39.221                   39.433
22.000                   3.0000                   3.0000                   1.7000                   2000.0                   1000.0                   30.000                   36.588                   39.997                   46.608                   48.400                   49.556                   49.948                   37.415                   40.973                   47.770                   49.591                   50.773                   51.174                   37.600                   41.190                   47.965                   49.756                   50.926                   51.322                   36.824                   40.249                   46.834                   48.607                   49.765                   50.155                   37.506                   41.060                   47.870                   49.703                   50.889                   51.290                   37.211                   40.669                   47.285                   49.064                   50.222                   50.615                   37.807                   41.407                   48.232                   50.053                   51.233                   51.632                   36.811                   40.236                   46.747                   48.477                   49.610                   49.996                   35.265                   38.291                   44.107                   45.682                   46.708                   47.059                   33.981                   36.308                   40.232                   41.198                   41.814                   42.025
22.000                   3.0000                   3.0000                   1.7000                   2000.0                   1000.0                   35.000                   40.583                   44.051                   50.763                   52.585                   53.749                   54.144                   41.365                   44.925                   51.722                   53.552                   54.740                   55.143                   41.559                   45.122                   51.842                   53.631                   54.801                   55.199                   40.795                   44.256                   50.893                   52.680                   53.841                   54.231                   41.466                   45.032                   51.863                   53.706                   54.898                   55.299                   41.217                   44.703                   51.362                   53.155                   54.322                   54.717                   41.763                   45.344                   52.133                   53.957                   55.141                   55.541                   40.518                   43.927                   50.401                   52.128                   53.256                   53.638                   38.585                   41.592                   47.383                   48.962                   49.992                   50.344                   36.917                   39.155                   42.981                   43.947                   44.555                   44.764
22.000                   3.0000                   3.0000                   1.7000                   2000.0                   1000.0                   40.000                   44.578                   48.104                   54.919                   56.769                   57.941                   58.340                   45.315                   48.876                   55.674                   57.512                   58.707                   59.112                   45.517                   49.055                   55.719                   57.506                   58.677                   59.075                   44.765                   48.262                   54.951                   56.753                   57.917                   58.307                   45.426                   49.003                   55.856                   57.709                   58.906                   59.309                   45.223                   48.736                   55.438                   57.247                   58.422                   58.820                   45.720                   49.281                   56.033                   57.861                   59.049                   59.451                   44.225                   47.618                   54.055                   55.778                   56.902                   57.280                   41.904                   44.892                   50.659                   52.242                   53.275                   53.628                   39.854                   42.002                   45.730                   46.696                   47.297                   47.503
22.000                   3.0000                   3.0000                   1.7000                   2000.0                   1000.0                   45.000                   48.614                   52.178                   59.072                   60.946                   62.123                   62.523                   49.293                   52.861                   59.680                   61.528                   62.727                   63.132                   49.489                   53.020                   59.686                   61.479                   62.651                   63.050                   48.767                   52.285                   59.009                   60.818                   61.982                   62.371                   49.403                   52.990                   59.867                   61.729                   62.930                   63.333                   49.248                   52.781                   59.525                   61.346                   62.526                   62.925                   49.681                   53.240                   60.007                   61.845                   63.038                   63.441                   47.898                   51.286                   57.717                   59.441                   60.562                   60.936                   45.211                   48.193                   53.963                   55.552                   56.586                   56.940                   42.867                   44.986                   48.702                   49.674                   50.271                   50.476
22.000                   3.0000                   3.0000                   1.7000                   2000.0                   1000.0                   50.000                   52.678                   56.265                   63.223                   65.119                   66.297                   66.697                   53.290                   56.869                   63.722                   65.579                   66.781                   67.186                   53.469                   57.008                   63.713                   65.516                   66.690                   67.090                   52.790                   56.320                   63.067                   64.879                   66.041                   66.427                   53.392                   56.988                   63.892                   65.760                   66.964                   67.367                   53.287                   56.834                   63.618                   65.450                   66.634                   67.033                   53.644                   57.216                   64.032                   65.883                   67.082                   67.487                   51.548                   54.938                   61.385                   63.113                   64.230                   64.602                   48.509                   51.494                   57.287                   58.880                   59.916                   60.268                   45.931                   48.061                   51.823                   52.805                   53.400                   53.603
22.000                   3.0000                   3.0000                   1.7000                   2000.0                   1000.0                   55.000                   56.742                   60.352                   67.375                   69.291                   70.471                   70.871                   57.288                   60.876                   67.764                   69.631                   70.835                   71.240                   57.449                   60.996                   67.739                   69.554                   70.730                   71.130                   56.814                   60.354                   67.125                   68.940                   70.099                   70.483                   57.380                   60.985                   67.916                   69.792                   70.997                   71.401                   57.326                   60.887                   67.712                   69.554                   70.741                   71.141                   57.607                   61.191                   68.057                   69.922                   71.126                   71.532                   55.198                   58.589                   65.054                   66.785                   67.899                   68.267                   51.806                   54.795                   60.611                   62.209                   63.245                   63.597                   48.994                   51.136                   54.944                   55.936                   56.529                   56.731
22.000                   3.0000                   3.0000                   1.7000                   2000.0                   1000.0                   60.000                   60.806                   64.439                   71.526                   73.463                   74.645                   75.045                   61.285                   64.884                   71.807                   73.682                   74.889                   75.294                   61.429                   64.984                   71.766                   73.591                   74.769                   75.170                   60.837                   64.389                   71.183                   73.000                   74.157                   74.539                   61.369                   64.982                   71.940                   73.823                   75.031                   75.435                   61.364                   64.940                   71.805                   73.658                   74.848                   75.248                   61.570                   65.166                   72.081                   73.960                   75.170                   75.577                   58.848                   62.241                   68.722                   70.457                   71.568                   71.933                   55.104                   58.097                   63.934                   65.538                   66.575                   66.926                   52.058                   54.211                   58.066                   59.068                   59.658                   59.859
22.000                   3.0000                   3.0000                   1.7000                   2000.0                   1000.0                   65.000                   64.870                   68.527                   75.678                   77.635                   78.820                   79.219                   65.282                   68.891                   75.849                   77.734                   78.943                   79.348                   65.410                   68.972                   75.793                   77.628                   78.809                   79.211                   64.860                   68.423                   75.241                   77.061                   78.216                   78.595                   65.357                   68.979                   75.964                   77.854                   79.065                   79.469                   65.403                   68.993                   75.899                   77.762                   78.956                   79.356                   65.534                   69.141                   76.106                   77.998                   79.214                   79.622                   62.498                   65.893                   72.390                   74.128                   75.236                   75.599                   58.402                   61.398                   67.258                   68.867                   69.904                   70.254                   55.122                   57.286                   61.187                   62.199                   62.787                   62.987
22.000                   3.0000                   3.0000                   1.7000                   2000.0                   1000.0                   70.000                   68.941                   72.617                   79.816                   81.789                   82.975                   83.374                   69.295                   72.914                   79.899                   81.790                   83.001                   83.407                   69.405                   72.977                   79.830                   81.675                   82.858                   83.261                   68.890                   72.464                   79.300                   81.122                   82.276                   82.654                   69.361                   72.990                   79.997                   81.893                   83.106                   83.511                   69.451                   73.054                   79.990                   81.861                   83.057                   83.457                   69.508                   73.128                   80.132                   82.035                   83.256                   83.664                   66.146                   69.545                   76.060                   77.803                   78.910                   79.270                   61.715                   64.714                   70.589                   72.202                   73.239                   73.589                   58.235                   60.405                   64.327                   65.342                   65.929                   66.127
22.000                   3.0000                   3.0000                   1.7000                   2000.0                   1000.0                   75.000                   73.018                   76.709                   83.946                   85.930                   87.117                   87.516                   73.320                   76.948                   83.953                   85.849                   87.062                   87.468                   73.412                   76.993                   83.875                   85.728                   86.915                   87.318                   72.925                   76.507                   83.361                   85.185                   86.338                   86.714                   73.374                   77.012                   84.037                   85.937                   87.152                   87.558                   73.505                   77.120                   84.080                   85.956                   87.155                   87.555                   73.491                   77.124                   84.160                   86.071                   87.295                   87.705                   69.792                   73.199                   79.732                   81.479                   82.586                   82.946                   65.038                   68.041                   73.926                   75.540                   76.578                   76.927                   61.379                   63.554                   67.480                   68.492                   69.078                   69.276