% Model:              batchmodel_COIL_N_22_COIL_kr_2.25_COIL_kh_2_COIL_kturn_1.4_FUNZ_freq_2000_FUNZ_I_eff_4000.mph
% Version:            COMSOL 5.6.0.280
% Date:               Feb 2 2022, 21:36
% Table:              Tabella 1 - GRIGLIA_T
% COIL_N                 COIL_kr                  COIL_kh                  COIL_kturn               FUNZ_freq                FUNZ_I_eff               Time (s)                 Temperatura (degC), Punto: (0, 0)Temperatura (degC), Punto: (15, 0)Temperatura (degC), Punto: (25.641, 0)Temperatura (degC), Punto: (27.821, 0)Temperatura (degC), Punto: (29.128, 0)Temperatura (degC), Punto: (29.564, 0)Temperatura (degC), Punto: (0, 62.5)Temperatura (degC), Punto: (15, 62.5)Temperatura (degC), Punto: (25.641, 62.5)Temperatura (degC), Punto: (27.821, 62.5)Temperatura (degC), Punto: (29.128, 62.5)Temperatura (degC), Punto: (29.564, 62.5)Temperatura (degC), Punto: (0, 125)Temperatura (degC), Punto: (15, 125)Temperatura (degC), Punto: (25.641, 125)Temperatura (degC), Punto: (27.821, 125)Temperatura (degC), Punto: (29.128, 125)Temperatura (degC), Punto: (29.564, 125)Temperatura (degC), Punto: (0, 187.5)Temperatura (degC), Punto: (15, 187.5)Temperatura (degC), Punto: (25.641, 187.5)Temperatura (degC), Punto: (27.821, 187.5)Temperatura (degC), Punto: (29.128, 187.5)Temperatura (degC), Punto: (29.564, 187.5)Temperatura (degC), Punto: (0, 250)Temperatura (degC), Punto: (15, 250)Temperatura (degC), Punto: (25.641, 250)Temperatura (degC), Punto: (27.821, 250)Temperatura (degC), Punto: (29.128, 250)Temperatura (degC), Punto: (29.564, 250)Temperatura (degC), Punto: (0, 312.5)Temperatura (degC), Punto: (15, 312.5)Temperatura (degC), Punto: (25.641, 312.5)Temperatura (degC), Punto: (27.821, 312.5)Temperatura (degC), Punto: (29.128, 312.5)Temperatura (degC), Punto: (29.564, 312.5)Temperatura (degC), Punto: (0, 375)Temperatura (degC), Punto: (15, 375)Temperatura (degC), Punto: (25.641, 375)Temperatura (degC), Punto: (27.821, 375)Temperatura (degC), Punto: (29.128, 375)Temperatura (degC), Punto: (29.564, 375)Temperatura (degC), Punto: (0, 437.5)Temperatura (degC), Punto: (15, 437.5)Temperatura (degC), Punto: (25.641, 437.5)Temperatura (degC), Punto: (27.821, 437.5)Temperatura (degC), Punto: (29.128, 437.5)Temperatura (degC), Punto: (29.564, 437.5)Temperatura (degC), Punto: (0, 468.75)Temperatura (degC), Punto: (15, 468.75)Temperatura (degC), Punto: (25.641, 468.75)Temperatura (degC), Punto: (27.821, 468.75)Temperatura (degC), Punto: (29.128, 468.75)Temperatura (degC), Punto: (29.564, 468.75)Temperatura (degC), Punto: (0, 492.19)Temperatura (degC), Punto: (15, 492.19)Temperatura (degC), Punto: (25.641, 492.19)Temperatura (degC), Punto: (27.821, 492.19)Temperatura (degC), Punto: (29.128, 492.19)Temperatura (degC), Punto: (29.564, 492.19)
22.000                   2.2500                   2.0000                   1.4000                   2000.0                   4000.0                   0.0000                   20.000                   20.000                   20.000                   20.000                   20.055                   20.123                   20.000                   20.000                   20.000                   20.000                   20.055                   20.123                   20.000                   20.000                   20.000                   20.000                   20.056                   20.124                   20.000                   20.000                   20.000                   20.000                   20.056                   20.124                   20.000                   20.000                   20.000                   20.000                   20.056                   20.124                   20.000                   20.000                   20.000                   20.000                   20.056                   20.124                   20.000                   20.000                   20.000                   20.000                   20.056                   20.124                   20.000                   20.000                   20.000                   20.000                   20.056                   20.124                   20.000                   20.000                   20.000                   20.000                   20.057                   20.126                   20.000                   20.000                   20.000                   20.000                   20.052                   20.119
22.000                   2.2500                   2.0000                   1.4000                   2000.0                   4000.0                   5.0000                   27.578                   55.787                   172.30                   216.95                   245.41                   252.11                   27.607                   55.968                   173.30                   218.09                   246.37                   252.90                   27.619                   56.025                   173.58                   218.26                   245.95                   252.44                   27.620                   56.022                   173.43                   218.54                   246.86                   253.40                   27.615                   55.983                   173.47                   218.75                   247.05                   253.57                   27.607                   55.964                   173.46                   218.65                   246.82                   253.33                   27.604                   55.920                   172.85                   217.60                   245.67                   252.21                   27.647                   56.171                   174.77                   220.20                   249.22                   255.94                   27.584                   56.024                   174.35                   218.48                   246.64                   253.57                   34.047                   63.254                   167.16                   205.19                   229.16                   235.09
22.000                   2.2500                   2.0000                   1.4000                   2000.0                   4000.0                   10.000                   76.080                   141.73                   318.55                   382.34                   420.21                   427.88                   76.103                   141.42                   314.42                   374.86                   411.52                   419.42                   76.094                   141.36                   313.86                   373.64                   410.38                   418.42                   76.184                   141.83                   317.62                   379.94                   417.65                   425.63                   76.189                   141.83                   317.11                   378.65                   416.09                   424.13                   76.151                   141.68                   315.81                   376.47                   414.13                   422.24                   76.099                   141.52                   316.05                   377.24                   414.17                   422.09                   76.573                   142.76                   320.33                   384.00                   422.25                   430.18                   76.502                   141.69                   313.42                   373.43                   409.07                   416.61                   83.961                   145.45                   293.38                   341.49                   370.73                   377.09
22.000                   2.2500                   2.0000                   1.4000                   2000.0                   4000.0                   15.000                   154.61                   240.99                   460.32                   535.46                   576.60                   584.79                   154.08                   239.64                   458.25                   534.14                   575.31                   583.38                   154.01                   239.48                   457.60                   533.04                   574.11                   582.21                   154.51                   240.71                   459.81                   535.21                   576.71                   584.90                   154.41                   240.40                   458.94                   534.29                   575.68                   583.85                   154.34                   240.20                   458.53                   534.09                   575.34                   583.47                   154.38                   240.38                   460.04                   536.33                   577.52                   585.58                   155.36                   242.01                   462.49                   538.05                   578.98                   587.10                   153.87                   237.74                   447.63                   518.57                   557.93                   565.91                   158.63                   235.96                   408.17                   461.74                   492.64                   499.19
22.000                   2.2500                   2.0000                   1.4000                   2000.0                   4000.0                   20.000                   240.87                   339.84                   589.04                   675.85                   722.45                   731.24                   240.03                   338.42                   586.67                   673.85                   720.95                   729.82                   240.03                   338.60                   588.13                   675.35                   722.24                   731.20                   240.64                   339.60                   590.09                   678.77                   725.78                   734.45                   240.51                   339.38                   589.84                   679.04                   725.88                   734.53                   240.46                   339.34                   590.31                   679.63                   726.11                   734.70                   240.55                   339.33                   588.39                   675.59                   722.64                   731.50                   241.46                   340.41                   588.69                   674.67                   721.17                   730.05                   237.21                   331.57                   563.70                   640.89                   684.09                   692.88                   238.49                   323.35                   508.41                   564.03                   596.17                   603.08
22.000                   2.2500                   2.0000                   1.4000                   2000.0                   4000.0                   25.000                   325.69                   432.51                   699.69                   798.14                   853.58                   863.66                   324.90                   431.71                   699.60                   798.72                   854.99                   865.23                   325.00                   432.09                   701.47                   800.24                   855.71                   865.96                   325.48                   432.53                   701.56                   802.32                   858.31                   868.33                   325.39                   432.56                   702.41                   803.59                   859.26                   869.26                   325.43                   432.78                   704.20                   805.96                   861.62                   871.60                   325.52                   432.58                   701.04                   799.69                   855.60                   865.83                   325.96                   432.69                   698.56                   795.09                   850.47                   860.71                   318.51                   418.95                   660.43                   740.30                   783.98                   792.94                   319.15                   407.81                   599.52                   655.16                   687.28                   694.24
22.000                   2.2500                   2.0000                   1.4000                   2000.0                   4000.0                   30.000                   405.81                   516.35                   811.65                   938.13                   992.44                   1001.0                   405.30                   516.14                   812.68                   939.55                   993.81                   1002.3                   405.53                   516.70                   815.12                   942.55                   996.87                   1005.3                   405.71                   516.62                   814.68                   942.10                   996.53                   1005.0                   405.74                   516.91                   816.24                   943.94                   998.37                   1006.9                   405.86                   517.30                   818.40                   946.60                   1001.0                   1009.4                   405.91                   516.92                   814.86                   942.21                   996.54                   1005.0                   405.63                   516.12                   811.69                   938.72                   993.26                   1001.8                   394.76                   497.35                   752.04                   858.30                   911.89                   920.95                   390.20                   480.43                   674.37                   735.52                   768.36                   774.57
22.000                   2.2500                   2.0000                   1.4000                   2000.0                   4000.0                   35.000                   478.97                   590.82                   898.46                   998.11                   1036.5                   1041.9                   478.80                   591.13                   900.18                   999.01                   1036.9                   1042.1                   479.20                   592.43                   916.23                   1019.7                   1056.1                   1060.7                   479.19                   593.19                   949.66                   1060.5                   1092.6                   1095.8                   479.42                   594.39                   971.05                   1080.6                   1109.4                   1112.0                   479.62                   594.95                   973.89                   1082.6                   1110.9                   1113.4                   479.50                   593.24                   937.81                   1047.0                   1080.7                   1084.3                   478.57                   592.42                   952.27                   1064.1                   1095.9                   1099.0                   464.17                   567.46                   836.69                   938.31                   982.25                   989.13                   454.70                   544.15                   728.27                   787.14                   819.43                   825.24
22.000                   2.2500                   2.0000                   1.4000                   2000.0                   4000.0                   40.000                   544.23                   650.48                   914.46                   979.29                   1005.6                   1009.4                   544.50                   651.96                   923.74                   988.59                   1014.0                   1017.5                   545.53                   656.53                   972.39                   1045.4                   1066.3                   1068.2                   546.10                   662.44                   1053.7                   1118.7                   1132.0                   1132.3                   546.94                   667.10                   1089.2                   1146.5                   1157.0                   1156.7                   547.23                   667.66                   1088.0                   1145.1                   1155.6                   1155.3                   546.24                   660.84                   1030.8                   1099.6                   1114.7                   1115.3                   545.20                   662.25                   1061.6                   1125.2                   1137.8                   1137.9                   525.85                   625.50                   887.26                   971.15                   1006.5                   1011.8                   511.92                   596.78                   767.98                   825.45                   854.86                   859.97
22.000                   2.2500                   2.0000                   1.4000                   2000.0                   4000.0                   45.000                   598.94                   695.55                   926.53                   975.27                   995.43                   998.29                   599.84                   698.88                   944.49                   993.95                   1012.9                   1015.3                   602.15                   708.49                   1013.0                   1066.1                   1079.0                   1079.6                   604.35                   722.47                   1099.9                   1141.0                   1147.4                   1146.6                   606.33                   732.69                   1134.8                   1169.5                   1173.7                   1172.5                   606.65                   732.91                   1132.2                   1166.9                   1171.2                   1170.0                   603.97                   718.32                   1077.5                   1122.1                   1129.9                   1129.4                   603.78                   723.83                   1107.0                   1146.2                   1151.9                   1151.0                   578.36                   671.83                   923.88                   994.59                   1023.6                   1027.6                   560.91                   639.29                   805.09                   860.50                   887.77                   892.35
22.000                   2.2500                   2.0000                   1.4000                   2000.0                   4000.0                   50.000                   645.16                   732.63                   944.16                   983.42                   999.55                   1001.7                   646.70                   738.22                   968.12                   1008.5                   1022.9                   1024.5                   650.43                   754.45                   1041.2                   1079.3                   1087.5                   1087.3                   654.55                   779.31                   1116.7                   1143.3                   1146.2                   1144.9                   657.75                   796.88                   1146.7                   1168.3                   1169.3                   1167.7                   658.04                   796.61                   1144.0                   1165.7                   1166.8                   1165.2                   653.57                   771.78                   1097.9                   1127.4                   1131.4                   1130.4                   654.70                   782.46                   1117.2                   1141.8                   1143.9                   1142.5                   623.77                   711.69                   966.78                   1027.7                   1049.0                   1051.4                   603.46                   675.46                   839.83                   892.06                   917.06                   921.12
22.000                   2.2500                   2.0000                   1.4000                   2000.0                   4000.0                   55.000                   683.14                   767.37                   967.83                   1000.5                   1013.2                   1014.6                   685.14                   776.09                   995.39                   1029.0                   1039.6                   1040.3                   689.88                   800.66                   1063.5                   1091.4                   1096.4                   1095.8                   695.34                   835.98                   1125.2                   1143.5                   1144.3                   1142.7                   699.29                   859.41                   1150.2                   1164.4                   1163.6                   1161.8                   699.52                   858.72                   1147.8                   1162.2                   1161.5                   1159.6                   693.91                   825.56                   1109.8                   1130.4                   1132.1                   1130.7                   696.21                   840.51                   1120.5                   1136.8                   1136.9                   1135.3                   662.65                   749.57                   1022.5                   1070.9                   1083.4                   1083.9                   639.90                   705.87                   869.94                   917.52                   939.78                   943.28
22.000                   2.2500                   2.0000                   1.4000                   2000.0                   4000.0                   60.000                   712.54                   805.65                   997.85                   1025.5                   1034.4                   1035.0                   714.64                   817.18                   1024.8                   1051.9                   1058.7                   1058.7                   719.78                   847.47                   1080.5                   1101.0                   1103.6                   1102.5                   726.18                   887.43                   1128.4                   1141.5                   1140.9                   1139.2                   730.84                   912.66                   1148.6                   1158.4                   1156.6                   1154.6                   731.02                   911.92                   1146.9                   1156.8                   1155.1                   1153.1                   724.38                   875.93                   1116.1                   1130.9                   1131.0                   1129.4                   727.73                   893.16                   1122.2                   1133.4                   1132.3                   1130.5                   695.29                   792.32                   1069.6                   1103.1                   1109.2                   1108.6                   670.85                   731.57                   895.45                   937.67                   957.22                   960.19
22.000                   2.2500                   2.0000                   1.4000                   2000.0                   4000.0                   65.000                   738.86                   849.90                   1031.0                   1053.0                   1058.3                   1058.0                   742.25                   861.60                   1051.4                   1072.1                   1075.9                   1075.2                   751.02                   891.06                   1092.3                   1107.6                   1108.5                   1107.1                   762.10                   928.22                   1128.8                   1138.5                   1137.0                   1135.2                   770.16                   951.53                   1145.1                   1152.2                   1149.8                   1147.8                   770.51                   951.03                   1143.9                   1151.2                   1148.8                   1146.8                   758.95                   917.76                   1119.3                   1130.3                   1129.3                   1127.6                   767.41                   936.20                   1124.8                   1132.8                   1130.9                   1129.0                   721.12                   840.04                   1094.3                   1118.2                   1121.1                   1120.0                   693.94                   755.88                   917.40                   954.48                   971.50                   973.99
22.000                   2.2500                   2.0000                   1.4000                   2000.0                   4000.0                   70.000                   765.07                   895.63                   1064.6                   1080.4                   1082.3                   1081.2                   770.20                   906.73                   1077.0                   1091.2                   1092.2                   1091.0                   783.74                   933.65                   1103.0                   1113.5                   1112.8                   1111.2                   800.79                   966.22                   1128.6                   1135.4                   1133.2                   1131.3                   813.09                   986.75                   1141.3                   1146.2                   1143.3                   1141.2                   813.69                   986.54                   1140.6                   1145.5                   1142.6                   1140.6                   795.94                   957.29                   1122.0                   1129.6                   1127.7                   1125.9                   810.88                   976.76                   1127.7                   1133.0                   1130.3                   1128.3                   745.33                   888.65                   1113.4                   1129.4                   1129.9                   1128.4                   714.94                   780.16                   938.61                   970.64                   985.19                   987.22
22.000                   2.2500                   2.0000                   1.4000                   2000.0                   4000.0                   75.000                   813.08                   939.22                   1085.4                   1096.4                   1096.3                   1094.9                   819.15                   948.60                   1093.8                   1103.6                   1103.0                   1101.4                   834.13                   971.08                   1112.0                   1119.2                   1117.5                   1115.7                   852.02                   997.76                   1130.9                   1135.5                   1132.7                   1130.7                   864.68                   1014.8                   1140.8                   1144.0                   1140.7                   1138.6                   865.36                   1014.8                   1140.4                   1143.6                   1140.3                   1138.2                   847.01                   990.57                   1126.0                   1131.2                   1128.6                   1126.7                   865.29                   1009.8                   1132.1                   1135.4                   1132.2                   1130.1                   784.42                   932.03                   1123.3                   1134.7                   1133.8                   1132.1                   732.47                   809.88                   962.36                   990.50                   1002.5                   1003.9