% Model:              batchmodel_COIL_N_22_COIL_kr_3_COIL_kh_2_COIL_kturn_1.7_FUNZ_freq_6000_FUNZ_I_eff_1000.mph
% Version:            COMSOL 5.6.0.280
% Date:               Feb 3 2022, 06:04
% Table:              Tabella 1 - GRIGLIA_T
% COIL_N                 COIL_kr                  COIL_kh                  COIL_kturn               FUNZ_freq                FUNZ_I_eff               Time (s)                 Temperatura (degC), Punto: (0, 0)Temperatura (degC), Punto: (15, 0)Temperatura (degC), Punto: (27.483, 0)Temperatura (degC), Punto: (28.742, 0)Temperatura (degC), Punto: (29.497, 0)Temperatura (degC), Punto: (29.748, 0)Temperatura (degC), Punto: (0, 62.5)Temperatura (degC), Punto: (15, 62.5)Temperatura (degC), Punto: (27.483, 62.5)Temperatura (degC), Punto: (28.742, 62.5)Temperatura (degC), Punto: (29.497, 62.5)Temperatura (degC), Punto: (29.748, 62.5)Temperatura (degC), Punto: (0, 125)Temperatura (degC), Punto: (15, 125)Temperatura (degC), Punto: (27.483, 125)Temperatura (degC), Punto: (28.742, 125)Temperatura (degC), Punto: (29.497, 125)Temperatura (degC), Punto: (29.748, 125)Temperatura (degC), Punto: (0, 187.5)Temperatura (degC), Punto: (15, 187.5)Temperatura (degC), Punto: (27.483, 187.5)Temperatura (degC), Punto: (28.742, 187.5)Temperatura (degC), Punto: (29.497, 187.5)Temperatura (degC), Punto: (29.748, 187.5)Temperatura (degC), Punto: (0, 250)Temperatura (degC), Punto: (15, 250)Temperatura (degC), Punto: (27.483, 250)Temperatura (degC), Punto: (28.742, 250)Temperatura (degC), Punto: (29.497, 250)Temperatura (degC), Punto: (29.748, 250)Temperatura (degC), Punto: (0, 312.5)Temperatura (degC), Punto: (15, 312.5)Temperatura (degC), Punto: (27.483, 312.5)Temperatura (degC), Punto: (28.742, 312.5)Temperatura (degC), Punto: (29.497, 312.5)Temperatura (degC), Punto: (29.748, 312.5)Temperatura (degC), Punto: (0, 375)Temperatura (degC), Punto: (15, 375)Temperatura (degC), Punto: (27.483, 375)Temperatura (degC), Punto: (28.742, 375)Temperatura (degC), Punto: (29.497, 375)Temperatura (degC), Punto: (29.748, 375)Temperatura (degC), Punto: (0, 437.5)Temperatura (degC), Punto: (15, 437.5)Temperatura (degC), Punto: (27.483, 437.5)Temperatura (degC), Punto: (28.742, 437.5)Temperatura (degC), Punto: (29.497, 437.5)Temperatura (degC), Punto: (29.748, 437.5)Temperatura (degC), Punto: (0, 468.75)Temperatura (degC), Punto: (15, 468.75)Temperatura (degC), Punto: (27.483, 468.75)Temperatura (degC), Punto: (28.742, 468.75)Temperatura (degC), Punto: (29.497, 468.75)Temperatura (degC), Punto: (29.748, 468.75)Temperatura (degC), Punto: (0, 492.19)Temperatura (degC), Punto: (15, 492.19)Temperatura (degC), Punto: (27.483, 492.19)Temperatura (degC), Punto: (28.742, 492.19)Temperatura (degC), Punto: (29.497, 492.19)Temperatura (degC), Punto: (29.748, 492.19)
22.000                   3.0000                   2.0000                   1.7000                   6000.0                   1000.0                   0.0000                   20.000                   20.000                   20.000                   20.000                   20.003                   20.030                   20.000                   20.000                   20.000                   20.000                   20.003                   20.031                   20.000                   20.000                   20.000                   20.000                   20.003                   20.031                   20.000                   20.000                   20.000                   20.000                   20.003                   20.031                   20.000                   20.000                   20.000                   20.000                   20.003                   20.031                   20.000                   20.000                   20.000                   20.000                   20.003                   20.031                   20.000                   20.000                   20.000                   20.000                   20.003                   20.031                   20.000                   20.000                   20.000                   20.000                   20.003                   20.031                   20.000                   20.000                   20.000                   20.000                   20.003                   20.031                   20.000                   20.000                   20.000                   20.000                   20.002                   20.026
22.000                   3.0000                   2.0000                   1.7000                   6000.0                   1000.0                   5.0000                   20.992                   24.532                   47.086                   51.557                   53.923                   54.578                   20.997                   24.565                   47.389                   51.919                   54.248                   54.908                   21.022                   24.652                   47.377                   51.783                   54.071                   54.775                   21.037                   24.642                   46.799                   51.186                   53.424                   54.150                   21.065                   24.686                   44.936                   48.737                   50.970                   51.710                   21.088                   24.727                   44.237                   47.829                   50.106                   50.856                   21.189                   25.034                   44.693                   48.264                   50.561                   51.315                   21.135                   24.828                   44.640                   48.459                   50.684                   51.418                   21.101                   24.704                   44.109                   47.706                   49.974                   50.718                   21.559                   25.707                   43.186                   46.290                   48.190                   48.821
22.000                   3.0000                   2.0000                   1.7000                   6000.0                   1000.0                   10.000                   29.287                   38.695                   70.227                   75.032                   77.459                   78.161                   29.616                   39.460                   72.553                   77.485                   80.058                   80.806                   29.520                   39.236                   71.969                   76.787                   79.294                   80.039                   29.302                   38.650                   70.044                   74.794                   77.225                   77.979                   29.078                   37.925                   66.015                   70.194                   72.609                   73.381                   28.970                   37.492                   63.780                   67.666                   70.066                   70.836                   28.832                   37.071                   62.266                   66.030                   68.400                   69.164                   28.638                   36.933                   63.369                   67.447                   69.842                   70.611                   28.755                   36.997                   62.858                   66.725                   69.091                   69.854                   31.224                   40.431                   63.723                   67.022                   68.976                   69.606
22.000                   3.0000                   2.0000                   1.7000                   6000.0                   1000.0                   15.000                   41.045                   53.310                   83.891                   87.848                   90.305                   91.105                   41.754                   54.406                   85.389                   89.448                   91.926                   92.763                   41.468                   53.909                   84.831                   88.878                   91.262                   92.039                   40.991                   53.066                   83.378                   87.331                   89.677                   90.440                   40.519                   52.141                   81.403                   85.336                   87.717                   88.478                   40.300                   51.612                   80.191                   84.084                   86.508                   87.286                   39.685                   50.566                   78.598                   82.504                   84.940                   85.722                   39.256                   50.188                   78.467                   82.392                   84.847                   85.620                   39.597                   50.461                   78.498                   82.372                   84.797                   85.573                   42.533                   53.525                   78.439                   81.649                   83.664                   84.314
22.000                   3.0000                   2.0000                   1.7000                   6000.0                   1000.0                   20.000                   55.736                   70.207                   109.92                   115.56                   118.21                   118.96                   56.676                   71.376                   111.49                   117.30                   120.17                   121.03                   56.278                   70.867                   110.89                   116.42                   119.05                   119.83                   55.369                   69.151                   106.20                   111.43                   113.80                   114.52                   54.774                   68.090                   101.80                   106.37                   108.89                   109.68                   54.409                   67.192                   98.534                   102.77                   105.29                   106.09                   53.073                   65.239                   95.130                   99.190                   101.70                   102.49                   52.333                   64.635                   95.888                   100.35                   102.86                   103.65                   53.015                   65.339                   96.339                   100.55                   103.04                   103.82                   57.457                   70.522                   97.317                   100.75                   102.77                   103.41
22.000                   3.0000                   2.0000                   1.7000                   6000.0                   1000.0                   25.000                   72.564                   89.053                   133.93                   140.19                   143.23                   144.03                   73.804                   90.613                   136.58                   143.10                   146.24                   147.17                   73.293                   89.927                   135.22                   141.25                   144.17                   145.04                   71.628                   86.969                   128.10                   133.82                   136.40                   137.18                   70.993                   85.802                   122.78                   127.65                   130.35                   131.17                   70.290                   84.233                   117.65                   122.10                   124.74                   125.56                   67.827                   80.841                   112.01                   116.18                   118.75                   119.56                   66.713                   79.984                   113.04                   117.62                   120.19                   121.00                   67.991                   81.407                   114.46                   118.86                   121.42                   122.23                   74.286                   88.769                   116.73                   120.27                   122.33                   122.98
22.000                   3.0000                   2.0000                   1.7000                   6000.0                   1000.0                   30.000                   89.742                   106.66                   149.23                   154.86                   157.88                   158.71                   91.276                   108.56                   152.24                   158.05                   161.08                   161.98                   90.709                   107.77                   150.79                   156.28                   159.20                   160.08                   88.390                   104.16                   143.87                   149.17                   151.88                   152.71                   87.813                   103.13                   139.94                   144.69                   147.45                   148.29                   86.820                   101.26                   135.19                   139.65                   142.35                   143.19                   83.196                   96.660                   128.55                   132.81                   135.44                   136.27                   81.636                   95.341                   128.63                   133.13                   135.77                   136.60                   83.433                   97.246                   130.45                   134.83                   137.45                   138.28                   89.994                   104.31                   132.33                   135.84                   137.93                   138.59
22.000                   3.0000                   2.0000                   1.7000                   6000.0                   1000.0                   35.000                   106.72                   122.84                   159.27                   163.74                   166.43                   167.27                   108.48                   124.89                   161.71                   166.18                   168.89                   169.71                   107.92                   124.13                   160.66                   165.14                   167.84                   168.67                   105.17                   120.48                   155.76                   160.23                   162.98                   163.83                   104.72                   119.74                   154.24                   158.67                   161.40                   162.25                   103.56                   117.98                   151.48                   155.89                   158.62                   159.47                   98.893                   112.53                   144.86                   149.21                   151.92                   152.77                   96.827                   110.57                   143.23                   147.60                   150.31                   151.16                   98.960                   112.65                   144.92                   149.19                   151.85                   152.68                   104.41                   117.53                   145.03                   148.44                   150.54                   151.21
22.000                   3.0000                   2.0000                   1.7000                   6000.0                   1000.0                   40.000                   123.34                   139.20                   176.09                   180.69                   183.21                   184.04                   125.21                   141.19                   177.42                   181.89                   184.47                   185.22                   124.68                   140.46                   176.28                   180.70                   183.24                   183.99                   121.69                   136.86                   172.37                   177.02                   179.78                   180.63                   121.34                   136.27                   170.82                   175.33                   178.11                   178.96                   120.12                   134.66                   168.89                   173.47                   176.28                   177.15                   114.60                   128.47                   161.67                   166.17                   168.98                   169.85                   111.99                   125.86                   159.10                   163.60                   166.37                   167.23                   114.27                   127.99                   160.63                   165.00                   167.70                   168.54                   118.92                   131.81                   159.46                   162.89                   165.01                   165.68
22.000                   3.0000                   2.0000                   1.7000                   6000.0                   1000.0                   45.000                   139.95                   156.35                   198.14                   203.53                   206.01                   206.75                   141.79                   158.18                   198.93                   204.26                   206.88                   207.65                   141.29                   157.47                   197.50                   202.56                   204.99                   205.69                   138.12                   153.68                   192.70                   198.10                   200.91                   201.74                   137.90                   153.23                   190.41                   195.34                   198.22                   199.09                   136.69                   151.67                   187.91                   192.88                   195.85                   196.76                   130.41                   144.66                   179.06                   183.74                   186.65                   187.54                   127.22                   141.39                   176.04                   180.82                   183.66                   184.52                   129.49                   143.52                   177.64                   182.24                   185.01                   185.87                   134.23                   147.74                   175.94                   179.45                   181.58                   182.25
22.000                   3.0000                   2.0000                   1.7000                   6000.0                   1000.0                   50.000                   157.18                   174.65                   220.50                   226.46                   229.00                   229.70                   158.94                   176.30                   220.80                   226.51                   229.20                   229.98                   158.46                   175.61                   219.38                   224.75                   227.11                   227.78                   154.93                   171.21                   213.13                   218.99                   221.92                   222.75                   154.86                   170.94                   210.41                   215.61                   218.61                   219.51                   153.63                   169.28                   207.34                   212.54                   215.64                   216.58                   146.54                   161.32                   197.11                   201.98                   204.99                   205.90                   142.67                   157.26                   193.15                   198.12                   201.04                   201.92                   144.97                   159.51                   195.14                   199.92                   202.77                   203.65                   150.26                   164.61                   193.85                   197.46                   199.64                   200.32
22.000                   3.0000                   2.0000                   1.7000                   6000.0                   1000.0                   55.000                   175.19                   193.55                   241.71                   247.98                   250.59                   251.31                   176.97                   195.25                   242.25                   248.33                   251.25                   252.07                   176.55                   194.68                   241.30                   246.96                   249.40                   250.10                   172.25                   189.12                   232.47                   238.47                   241.46                   242.29                   172.44                   189.19                   230.31                   235.71                   238.80                   239.72                   171.16                   187.41                   226.87                   232.25                   235.47                   236.43                   163.24                   178.54                   215.60                   220.63                   223.74                   224.68                   158.52                   173.55                   210.54                   215.68                   218.71                   219.62                   160.88                   175.89                   212.69                   217.62                   220.55                   221.45                   166.63                   181.48                   211.43                   215.11                   217.32                   218.01
22.000                   3.0000                   2.0000                   1.7000                   6000.0                   1000.0                   60.000                   193.24                   212.49                   262.86                   269.43                   272.11                   272.85                   195.05                   214.23                   263.68                   270.14                   273.28                   274.16                   194.69                   213.78                   263.22                   269.17                   271.70                   272.43                   189.60                   207.06                   251.76                   257.89                   260.94                   261.76                   190.04                   207.47                   250.20                   255.80                   258.98                   259.92                   188.72                   205.57                   246.42                   251.96                   255.29                   256.28                   179.96                   195.78                   234.10                   239.30                   242.51                   243.47                   174.40                   189.86                   227.95                   233.25                   236.39                   237.33                   176.81                   192.29                   230.24                   235.32                   238.33                   239.25                   183.02                   198.35                   229.00                   232.74                   234.99                   235.69
22.000                   3.0000                   2.0000                   1.7000                   6000.0                   1000.0                   65.000                   211.29                   231.08                   282.67                   289.45                   292.21                   292.99                   213.30                   233.16                   284.23                   290.93                   294.24                   295.15                   212.96                   232.73                   284.00                   290.20                   292.87                   293.63                   207.14                   225.06                   270.71                   276.92                   280.02                   280.84                   207.66                   225.58                   269.47                   275.23                   278.49                   279.44                   206.42                   223.75                   265.70                   271.39                   274.84                   275.85                   196.97                   213.27                   252.81                   258.18                   261.50                   262.48                   190.45                   206.29                   245.30                   250.74                   253.97                   254.93                   192.78                   208.61                   247.41                   252.60                   255.69                   256.62                   199.15                   214.75                   245.88                   249.66                   251.93                   252.64
22.000                   3.0000                   2.0000                   1.7000                   6000.0                   1000.0                   70.000                   229.33                   249.56                   302.00                   308.96                   311.81                   312.62                   231.62                   252.07                   304.46                   311.36                   314.81                   315.75                   231.27                   251.63                   304.37                   310.81                   313.63                   314.43                   224.74                   243.09                   289.53                   295.81                   298.96                   299.78                   225.28                   243.63                   288.52                   294.42                   297.74                   298.71                   224.18                   241.95                   284.90                   290.73                   294.28                   295.32                   214.08                   230.85                   271.59                   277.14                   280.56                   281.56                   206.57                   222.76                   262.63                   268.19                   271.52                   272.50                   208.75                   224.90                   264.44                   269.74                   272.89                   273.83                   215.19                   230.99                   262.50                   266.33                   268.61                   269.32
22.000                   3.0000                   2.0000                   1.7000                   6000.0                   1000.0                   75.000                   247.37                   268.04                   321.32                   328.46                   331.40                   332.25                   249.94                   270.97                   324.70                   331.79                   335.38                   336.35                   249.58                   270.54                   324.74                   331.43                   334.39                   335.23                   242.35                   261.12                   308.35                   314.70                   317.89                   318.71                   242.91                   261.68                   307.57                   313.62                   317.00                   317.99                   241.94                   260.15                   304.09                   310.06                   313.72                   314.79                   231.20                   248.44                   290.37                   296.09                   299.62                   300.64                   222.68                   239.23                   279.97                   285.65                   289.07                   290.07                   224.72                   241.19                   281.47                   286.87                   290.10                   291.05                   231.23                   247.23                   279.13                   283.00                   285.29                   286.00