% Model:              batchmodel_COIL_N_22_COIL_kr_1.5_COIL_kh_3_COIL_kturn_1.4_FUNZ_freq_10000_FUNZ_I_eff_1000.mph
% Version:            COMSOL 5.6.0.280
% Date:               Feb 2 2022, 15:50
% Table:              Tabella 1 - GRIGLIA_T
% COIL_N                 COIL_kr                  COIL_kh                  COIL_kturn               FUNZ_freq                FUNZ_I_eff               Time (s)                 Temperatura (degC), Punto: (0, 0)Temperatura (degC), Punto: (15, 0)Temperatura (degC), Punto: (28.051, 0)Temperatura (degC), Punto: (29.025, 0)Temperatura (degC), Punto: (29.61, 0)Temperatura (degC), Punto: (29.805, 0)Temperatura (degC), Punto: (0, 62.5)Temperatura (degC), Punto: (15, 62.5)Temperatura (degC), Punto: (28.051, 62.5)Temperatura (degC), Punto: (29.025, 62.5)Temperatura (degC), Punto: (29.61, 62.5)Temperatura (degC), Punto: (29.805, 62.5)Temperatura (degC), Punto: (0, 125)Temperatura (degC), Punto: (15, 125)Temperatura (degC), Punto: (28.051, 125)Temperatura (degC), Punto: (29.025, 125)Temperatura (degC), Punto: (29.61, 125)Temperatura (degC), Punto: (29.805, 125)Temperatura (degC), Punto: (0, 187.5)Temperatura (degC), Punto: (15, 187.5)Temperatura (degC), Punto: (28.051, 187.5)Temperatura (degC), Punto: (29.025, 187.5)Temperatura (degC), Punto: (29.61, 187.5)Temperatura (degC), Punto: (29.805, 187.5)Temperatura (degC), Punto: (0, 250)Temperatura (degC), Punto: (15, 250)Temperatura (degC), Punto: (28.051, 250)Temperatura (degC), Punto: (29.025, 250)Temperatura (degC), Punto: (29.61, 250)Temperatura (degC), Punto: (29.805, 250)Temperatura (degC), Punto: (0, 312.5)Temperatura (degC), Punto: (15, 312.5)Temperatura (degC), Punto: (28.051, 312.5)Temperatura (degC), Punto: (29.025, 312.5)Temperatura (degC), Punto: (29.61, 312.5)Temperatura (degC), Punto: (29.805, 312.5)Temperatura (degC), Punto: (0, 375)Temperatura (degC), Punto: (15, 375)Temperatura (degC), Punto: (28.051, 375)Temperatura (degC), Punto: (29.025, 375)Temperatura (degC), Punto: (29.61, 375)Temperatura (degC), Punto: (29.805, 375)Temperatura (degC), Punto: (0, 437.5)Temperatura (degC), Punto: (15, 437.5)Temperatura (degC), Punto: (28.051, 437.5)Temperatura (degC), Punto: (29.025, 437.5)Temperatura (degC), Punto: (29.61, 437.5)Temperatura (degC), Punto: (29.805, 437.5)Temperatura (degC), Punto: (0, 468.75)Temperatura (degC), Punto: (15, 468.75)Temperatura (degC), Punto: (28.051, 468.75)Temperatura (degC), Punto: (29.025, 468.75)Temperatura (degC), Punto: (29.61, 468.75)Temperatura (degC), Punto: (29.805, 468.75)Temperatura (degC), Punto: (0, 492.19)Temperatura (degC), Punto: (15, 492.19)Temperatura (degC), Punto: (28.051, 492.19)Temperatura (degC), Punto: (29.025, 492.19)Temperatura (degC), Punto: (29.61, 492.19)Temperatura (degC), Punto: (29.805, 492.19)
22.000                   1.5000                   3.0000                   1.4000                   10000                    1000.0                   0.0000                   20.000                   20.000                   20.000                   20.000                   20.003                   20.036                   20.000                   20.000                   20.000                   20.000                   20.005                   20.045                   20.000                   20.000                   20.000                   20.000                   20.005                   20.048                   20.000                   20.000                   20.000                   20.000                   20.005                   20.044                   20.000                   20.000                   20.000                   20.000                   20.003                   20.036                   20.000                   20.000                   20.000                   20.000                   20.005                   20.046                   20.000                   20.000                   20.000                   20.000                   20.005                   20.048                   20.000                   20.000                   20.000                   20.000                   20.005                   20.043                   20.000                   20.000                   20.000                   20.000                   20.005                   20.048                   20.000                   20.000                   20.000                   20.000                   20.004                   20.037
22.000                   1.5000                   3.0000                   1.4000                   10000                    1000.0                   5.0000                   21.259                   24.660                   44.647                   47.214                   48.821                   49.351                   21.369                   25.236                   48.453                   51.494                   53.409                   54.036                   21.454                   25.572                   50.526                   53.800                   55.989                   56.760                   21.352                   25.158                   48.085                   51.102                   53.003                   53.625                   21.247                   24.647                   44.631                   47.208                   48.822                   49.353                   21.383                   25.298                   48.845                   51.938                   53.888                   54.526                   21.450                   25.557                   50.339                   53.572                   55.582                   56.231                   21.342                   25.108                   47.738                   50.715                   52.588                   53.202                   21.459                   25.574                   50.446                   53.745                   55.830                   56.511                   21.739                   25.800                   46.789                   49.398                   51.035                   51.574
22.000                   1.5000                   3.0000                   1.4000                   10000                    1000.0                   10.000                   27.460                   35.436                   60.948                   63.620                   65.272                   65.811                   27.981                   36.828                   65.962                   69.124                   71.091                   71.729                   28.443                   37.945                   69.686                   73.185                   75.462                   76.198                   27.912                   36.656                   65.471                   68.598                   70.543                   71.174                   27.436                   35.410                   60.946                   63.623                   65.278                   65.818                   28.042                   36.978                   66.442                   69.648                   71.643                   72.288                   28.411                   37.865                   69.635                   73.148                   75.311                   75.986                   27.867                   36.531                   65.007                   68.084                   69.999                   70.620                   28.473                   37.887                   69.110                   72.536                   74.666                   75.344                   28.728                   37.578                   64.143                   66.845                   68.515                   69.060
22.000                   1.5000                   3.0000                   1.4000                   10000                    1000.0                   15.000                   37.523                   48.120                   75.926                   78.661                   80.342                   80.887                   38.527                   50.158                   81.769                   85.013                   87.023                   87.671                   39.457                   51.885                   85.498                   88.844                   90.920                   91.564                   38.440                   49.992                   81.393                   84.612                   86.607                   87.250                   37.489                   48.085                   75.914                   78.653                   80.337                   80.883                   38.626                   50.344                   82.203                   85.474                   87.499                   88.152                   39.392                   51.774                   85.851                   89.445                   91.719                   92.428                   38.318                   49.727                   80.576                   83.721                   85.669                   86.298                   39.543                   51.834                   85.080                   88.437                   90.506                   91.163                   39.571                   51.066                   79.831                   82.580                   84.270                   84.819
22.000                   1.5000                   3.0000                   1.4000                   10000                    1000.0                   20.000                   49.852                   61.664                   90.547                   93.332                   95.041                   95.594                   51.302                   64.203                   97.020                   100.33                   102.38                   103.04                   52.683                   66.448                   101.33                   104.72                   106.69                   107.31                   51.272                   64.161                   96.932                   100.23                   102.27                   102.92                   49.813                   61.626                   90.539                   93.330                   95.043                   95.597                   51.425                   64.409                   97.461                   100.80                   102.86                   103.52                   52.578                   66.277                   101.43                   105.09                   107.43                   108.16                   50.991                   63.638                   95.585                   98.787                   100.77                   101.40                   52.806                   66.339                   100.44                   103.79                   105.85                   106.51                   52.575                   65.238                   94.932                   97.715                   99.424                   99.976
22.000                   1.5000                   3.0000                   1.4000                   10000                    1000.0                   25.000                   63.533                   75.805                   105.29                   108.13                   109.88                   110.44                   65.358                   78.765                   112.34                   115.72                   117.81                   118.48                   66.944                   81.150                   116.79                   120.30                   122.34                   123.00                   65.384                   78.782                   112.24                   115.59                   117.67                   118.33                   63.489                   75.763                   105.29                   108.14                   109.88                   110.45                   65.475                   78.962                   112.81                   116.22                   118.33                   119.01                   66.897                   81.088                   116.83                   120.48                   122.81                   123.54                   64.888                   77.985                   110.55                   113.81                   115.83                   116.48                   67.161                   81.126                   115.88                   119.32                   121.43                   122.10                   66.715                   79.764                   109.88                   112.70                   114.43                   114.98
22.000                   1.5000                   3.0000                   1.4000                   10000                    1000.0                   30.000                   77.314                   90.007                   120.09                   122.98                   124.76                   125.33                   79.496                   93.366                   127.67                   131.12                   133.25                   133.93                   81.268                   95.883                   132.26                   135.91                   138.02                   138.73                   79.564                   93.425                   127.54                   130.94                   133.05                   133.72                   77.272                   89.970                   120.10                   123.00                   124.78                   125.35                   79.629                   93.585                   128.22                   131.71                   133.87                   134.56                   81.294                   95.945                   132.30                   135.96                   138.28                   139.01                   78.867                   92.376                   125.55                   128.87                   130.92                   131.58                   81.566                   95.929                   131.34                   134.85                   137.01                   137.70                   80.911                   94.308                   124.83                   127.68                   129.43                   129.99
22.000                   1.5000                   3.0000                   1.4000                   10000                    1000.0                   35.000                   91.980                   104.75                   135.29                   138.24                   140.05                   140.63                   94.348                   108.32                   143.13                   146.64                   148.81                   149.49                   96.153                   110.88                   147.99                   151.76                   153.98                   154.73                   94.345                   108.25                   142.71                   146.15                   148.28                   148.96                   92.002                   104.79                   135.40                   138.36                   140.17                   140.75                   94.714                   108.84                   144.15                   147.71                   149.92                   150.62                   96.384                   111.21                   148.40                   152.16                   154.55                   155.29                   93.565                   107.15                   140.81                   144.19                   146.28                   146.95                   96.420                   110.86                   146.88                   150.47                   152.69                   153.39                   95.605                   109.01                   139.79                   142.67                   144.45                   145.02
22.000                   1.5000                   3.0000                   1.4000                   10000                    1000.0                   40.000                   106.65                   119.50                   150.49                   153.50                   155.34                   155.93                   109.20                   123.27                   158.59                   162.15                   164.36                   165.06                   111.04                   125.88                   163.72                   167.61                   169.94                   170.74                   109.13                   123.08                   157.87                   161.36                   163.52                   164.20                   106.73                   119.61                   150.69                   153.71                   155.57                   156.16                   109.80                   124.09                   160.08                   163.71                   165.96                   166.67                   111.47                   126.48                   164.51                   168.37                   170.81                   171.57                   108.26                   121.93                   156.07                   159.51                   161.64                   162.31                   111.27                   125.80                   162.42                   166.10                   168.37                   169.08                   110.30                   123.72                   154.75                   157.67                   159.47                   160.04
22.000                   1.5000                   3.0000                   1.4000                   10000                    1000.0                   45.000                   121.31                   134.24                   165.69                   168.75                   170.63                   171.23                   124.05                   138.22                   174.05                   177.67                   179.91                   180.62                   125.92                   140.88                   179.44                   183.47                   185.90                   186.74                   123.91                   137.91                   173.04                   176.57                   178.76                   179.45                   121.46                   134.42                   165.99                   169.07                   170.96                   171.56                   124.88                   139.34                   176.01                   179.72                   182.01                   182.73                   126.56                   141.74                   180.61                   184.57                   187.08                   187.86                   122.96                   136.70                   171.33                   174.83                   177.00                   177.68                   126.13                   140.73                   177.96                   181.72                   184.05                   184.78                   124.99                   138.42                   169.71                   172.67                   174.48                   175.06
22.000                   1.5000                   3.0000                   1.4000                   10000                    1000.0                   50.000                   135.98                   148.99                   180.90                   184.01                   185.93                   186.53                   138.90                   153.17                   189.50                   193.19                   195.47                   196.18                   140.81                   155.87                   195.17                   199.31                   201.85                   202.74                   138.68                   152.74                   188.21                   191.78                   193.99                   194.69                   136.19                   149.24                   181.29                   184.43                   186.35                   186.96                   139.97                   154.59                   191.94                   195.72                   198.06                   198.80                   141.65                   157.01                   196.72                   200.78                   203.35                   204.14                   137.66                   151.48                   186.60                   190.16                   192.36                   193.05                   140.98                   155.67                   193.49                   197.35                   199.72                   200.46                   139.68                   153.12                   184.67                   187.66                   189.50                   190.08
22.000                   1.5000                   3.0000                   1.4000                   10000                    1000.0                   55.000                   150.68                   163.82                   196.24                   199.42                   201.37                   201.99                   153.72                   168.13                   205.00                   208.74                   211.06                   211.78                   155.55                   170.75                   210.69                   214.92                   217.52                   218.43                   153.29                   167.45                   203.41                   207.05                   209.30                   210.00                   150.98                   164.17                   196.76                   199.95                   201.92                   202.54                   155.14                   169.95                   207.96                   211.81                   214.20                   214.94                   156.71                   172.27                   212.84                   216.99                   219.62                   220.41                   152.35                   166.30                   201.95                   205.58                   207.82                   208.52                   155.67                   170.49                   208.85                   212.77                   215.18                   215.93                   154.22                   167.72                   199.58                   202.60                   204.46                   205.05
22.000                   1.5000                   3.0000                   1.4000                   10000                    1000.0                   60.000                   165.38                   178.65                   211.59                   214.83                   216.82                   217.45                   168.53                   183.08                   220.49                   224.30                   226.65                   227.38                   170.30                   185.64                   226.22                   230.53                   233.19                   234.13                   167.90                   182.16                   218.61                   222.31                   224.60                   225.32                   165.77                   179.10                   212.22                   215.48                   217.49                   218.11                   170.30                   185.32                   223.98                   227.90                   230.33                   231.08                   171.77                   187.54                   228.96                   233.21                   235.88                   236.67                   167.04                   181.13                   217.31                   221.00                   223.28                   223.99                   170.36                   185.31                   224.22                   228.19                   230.64                   231.40                   168.76                   182.32                   214.48                   217.54                   219.43                   220.02
22.000                   1.5000                   3.0000                   1.4000                   10000                    1000.0                   65.000                   180.09                   193.48                   226.94                   230.24                   232.27                   232.90                   183.35                   198.04                   235.98                   239.85                   242.24                   242.99                   185.04                   200.52                   241.75                   246.15                   248.86                   249.82                   182.51                   196.87                   233.81                   237.58                   239.91                   240.63                   180.55                   194.02                   227.69                   231.01                   233.05                   233.69                   185.46                   200.68                   240.00                   243.99                   246.46                   247.23                   186.83                   202.81                   245.08                   249.43                   252.15                   252.94                   181.73                   195.95                   232.67                   236.42                   238.74                   239.46                   185.06                   200.13                   239.58                   243.61                   246.10                   246.86                   183.29                   196.92                   229.38                   232.48                   234.39                   234.99
22.000                   1.5000                   3.0000                   1.4000                   10000                    1000.0                   70.000                   194.79                   208.31                   242.29                   245.65                   247.72                   248.36                   198.16                   212.99                   251.47                   255.40                   257.84                   258.59                   199.79                   215.41                   257.28                   261.76                   264.53                   265.51                   197.12                   211.58                   249.01                   252.84                   255.22                   255.95                   195.34                   208.95                   243.15                   246.54                   248.62                   249.27                   200.63                   216.04                   256.02                   260.08                   262.60                   263.37                   201.89                   218.08                   261.20                   265.64                   268.41                   269.21                   196.42                   210.77                   248.03                   251.85                   254.21                   254.94                   199.75                   214.95                   254.94                   259.03                   261.56                   262.33                   197.83                   211.52                   244.28                   247.42                   249.35                   249.95
22.000                   1.5000                   3.0000                   1.4000                   10000                    1000.0                   75.000                   209.28                   223.00                   257.56                   260.98                   263.09                   263.74                   212.69                   227.72                   266.78                   270.77                   273.25                   274.00                   214.10                   229.85                   272.14                   276.66                   279.46                   280.46                   211.47                   226.10                   264.11                   268.01                   270.43                   271.17                   209.95                   223.77                   258.57                   262.02                   264.14                   264.80                   215.50                   231.13                   271.72                   275.85                   278.41                   279.19                   216.59                   232.98                   276.67                   281.16                   283.94                   284.74                   210.86                   225.41                   263.27                   267.15                   269.55                   270.29                   214.06                   229.43                   269.92                   274.06                   276.61                   277.39                   211.98                   225.79                   258.89                   262.07                   264.02                   264.63