% Model:              batchmodel_COIL_N_22_COIL_kr_3_COIL_kh_1_COIL_kturn_1.4_FUNZ_freq_10000_FUNZ_I_eff_1000.mph
% Version:            COMSOL 5.6.0.280
% Date:               Feb 3 2022, 03:01
% Table:              Tabella 1 - GRIGLIA_T
% COIL_N                 COIL_kr                  COIL_kh                  COIL_kturn               FUNZ_freq                FUNZ_I_eff               Time (s)                 Temperatura (degC), Punto: (0, 0)Temperatura (degC), Punto: (15, 0)Temperatura (degC), Punto: (28.051, 0)Temperatura (degC), Punto: (29.025, 0)Temperatura (degC), Punto: (29.61, 0)Temperatura (degC), Punto: (29.805, 0)Temperatura (degC), Punto: (0, 62.5)Temperatura (degC), Punto: (15, 62.5)Temperatura (degC), Punto: (28.051, 62.5)Temperatura (degC), Punto: (29.025, 62.5)Temperatura (degC), Punto: (29.61, 62.5)Temperatura (degC), Punto: (29.805, 62.5)Temperatura (degC), Punto: (0, 125)Temperatura (degC), Punto: (15, 125)Temperatura (degC), Punto: (28.051, 125)Temperatura (degC), Punto: (29.025, 125)Temperatura (degC), Punto: (29.61, 125)Temperatura (degC), Punto: (29.805, 125)Temperatura (degC), Punto: (0, 187.5)Temperatura (degC), Punto: (15, 187.5)Temperatura (degC), Punto: (28.051, 187.5)Temperatura (degC), Punto: (29.025, 187.5)Temperatura (degC), Punto: (29.61, 187.5)Temperatura (degC), Punto: (29.805, 187.5)Temperatura (degC), Punto: (0, 250)Temperatura (degC), Punto: (15, 250)Temperatura (degC), Punto: (28.051, 250)Temperatura (degC), Punto: (29.025, 250)Temperatura (degC), Punto: (29.61, 250)Temperatura (degC), Punto: (29.805, 250)Temperatura (degC), Punto: (0, 312.5)Temperatura (degC), Punto: (15, 312.5)Temperatura (degC), Punto: (28.051, 312.5)Temperatura (degC), Punto: (29.025, 312.5)Temperatura (degC), Punto: (29.61, 312.5)Temperatura (degC), Punto: (29.805, 312.5)Temperatura (degC), Punto: (0, 375)Temperatura (degC), Punto: (15, 375)Temperatura (degC), Punto: (28.051, 375)Temperatura (degC), Punto: (29.025, 375)Temperatura (degC), Punto: (29.61, 375)Temperatura (degC), Punto: (29.805, 375)Temperatura (degC), Punto: (0, 437.5)Temperatura (degC), Punto: (15, 437.5)Temperatura (degC), Punto: (28.051, 437.5)Temperatura (degC), Punto: (29.025, 437.5)Temperatura (degC), Punto: (29.61, 437.5)Temperatura (degC), Punto: (29.805, 437.5)Temperatura (degC), Punto: (0, 468.75)Temperatura (degC), Punto: (15, 468.75)Temperatura (degC), Punto: (28.051, 468.75)Temperatura (degC), Punto: (29.025, 468.75)Temperatura (degC), Punto: (29.61, 468.75)Temperatura (degC), Punto: (29.805, 468.75)Temperatura (degC), Punto: (0, 492.19)Temperatura (degC), Punto: (15, 492.19)Temperatura (degC), Punto: (28.051, 492.19)Temperatura (degC), Punto: (29.025, 492.19)Temperatura (degC), Punto: (29.61, 492.19)Temperatura (degC), Punto: (29.805, 492.19)
22.000                   3.0000                   1.0000                   1.4000                   10000                    1000.0                   0.0000                   20.000                   20.000                   20.000                   20.000                   20.053                   20.199                   20.000                   20.000                   20.000                   20.000                   20.053                   20.199                   20.000                   20.000                   20.000                   20.000                   20.053                   20.199                   20.000                   20.000                   20.000                   20.000                   20.053                   20.198                   20.000                   20.000                   20.000                   20.000                   20.050                   20.192                   20.000                   20.000                   20.000                   20.000                   20.021                   20.114                   20.000                   20.000                   20.000                   20.000                   20.002                   20.023                   20.000                   20.000                   20.000                   20.000                   20.000                   20.004                   20.000                   20.000                   20.000                   20.000                   20.000                   20.002                   20.000                   20.000                   20.000                   20.000                   20.000                   20.001
22.000                   3.0000                   1.0000                   1.4000                   10000                    1000.0                   5.0000                   25.543                   44.158                   148.60                   163.10                   172.29                   174.81                   25.463                   43.999                   148.03                   162.52                   171.69                   174.22                   25.525                   44.244                   148.95                   163.49                   172.70                   175.23                   25.469                   43.952                   147.69                   162.16                   171.35                   173.88                   25.187                   42.796                   141.71                   155.46                   164.17                   166.59                   22.867                   32.645                   87.986                   95.617                   100.49                   101.97                   20.656                   22.765                   34.622                   36.364                   37.514                   37.908                   20.032                   20.149                   21.901                   22.364                   22.686                   22.773                   20.135                   20.624                   22.600                   22.787                   22.877                   22.914                   20.047                   20.075                   20.390                   20.522                   20.611                   20.645
22.000                   3.0000                   1.0000                   1.4000                   10000                    1000.0                   10.000                   58.673                   99.535                   242.42                   259.74                   270.49                   273.26                   58.493                   99.286                   242.05                   259.36                   270.08                   272.86                   58.832                   99.922                   243.59                   261.03                   271.85                   274.65                   58.555                   99.380                   242.66                   260.08                   270.89                   273.69                   56.387                   95.092                   230.24                   246.54                   256.67                   259.33                   40.798                   62.909                   138.26                   146.99                   152.46                   154.10                   24.936                   29.919                   46.349                   48.112                   49.192                   49.536                   20.863                   21.907                   27.070                   27.930                   28.459                   28.556                   20.703                   21.440                   23.415                   23.583                   23.676                   23.701                   20.380                   20.725                   22.493                   22.767                   22.925                   22.981
22.000                   3.0000                   1.0000                   1.4000                   10000                    1000.0                   15.000                   107.71                   163.08                   334.72                   355.10                   367.56                   370.61                   107.51                   162.89                   334.61                   354.99                   367.46                   370.51                   108.11                   163.72                   335.78                   356.16                   368.62                   371.67                   107.63                   163.08                   335.07                   355.47                   367.94                   370.99                   102.57                   154.94                   315.94                   334.83                   346.42                   349.31                   68.205                   98.529                   186.01                   195.53                   201.41                   203.13                   31.817                   38.877                   58.205                   60.117                   61.237                   61.547                   22.662                   24.684                   31.485                   32.373                   32.845                   32.917                   21.590                   22.582                   25.340                   25.596                   25.722                   25.764                   21.083                   21.849                   24.639                   25.027                   25.272                   25.354
22.000                   3.0000                   1.0000                   1.4000                   10000                    1000.0                   20.000                   167.57                   231.61                   428.54                   452.22                   466.44                   469.72                   167.45                   231.57                   428.82                   452.54                   466.82                   470.12                   168.03                   232.12                   427.96                   451.33                   465.36                   468.61                   167.47                   231.53                   428.19                   451.76                   465.95                   469.21                   158.84                   219.18                   402.20                   423.87                   436.97                   440.06                   103.26                   138.26                   235.17                   245.65                   252.13                   253.95                   41.361                   49.533                   70.409                   72.442                   73.622                   73.953                   25.518                   28.062                   35.019                   35.795                   36.202                   36.290                   22.947                   24.181                   27.893                   28.353                   28.620                   28.706                   22.243                   23.277                   26.365                   26.753                   27.003                   27.086
22.000                   3.0000                   1.0000                   1.4000                   10000                    1000.0                   25.000                   230.00                   301.17                   523.31                   550.57                   566.72                   570.25                   229.97                   301.31                   523.98                   551.33                   567.60                   571.14                   230.38                   301.35                   520.87                   547.52                   563.25                   566.70                   229.78                   300.89                   522.17                   549.24                   565.30                   568.80                   217.47                   284.26                   489.04                   513.69                   528.39                   531.68                   140.89                   179.48                   285.72                   297.29                   304.44                   306.37                   52.195                   61.159                   83.375                   85.548                   86.818                   87.188                   28.813                   31.656                   38.608                   39.319                   39.715                   39.822                   24.502                   25.879                   30.021                   30.578                   30.928                   31.047                   23.548                   24.705                   27.695                   28.049                   28.286                   28.363
22.000                   3.0000                   1.0000                   1.4000                   10000                    1000.0                   30.000                   293.19                   370.03                   614.52                   645.43                   663.68                   667.49                   293.26                   370.30                   615.44                   646.49                   664.89                   668.72                   293.38                   369.80                   610.78                   640.94                   658.56                   662.25                   292.78                   369.45                   612.74                   643.41                   661.54                   665.30                   277.07                   349.18                   575.03                   602.98                   619.48                   623.00                   180.26                   221.72                   337.11                   349.83                   357.70                   359.76                   64.198                   73.727                   97.145                   99.467                   100.85                   101.27                   32.464                   35.459                   42.479                   43.192                   43.630                   43.766                   26.224                   27.649                   31.729                   32.270                   32.621                   32.752                   24.958                   26.133                   28.853                   29.159                   29.369                   29.433
22.000                   3.0000                   1.0000                   1.4000                   10000                    1000.0                   35.000                   355.60                   436.71                   698.31                   732.76                   753.24                   757.36                   355.75                   437.06                   699.21                   733.83                   754.49                   758.62                   355.57                   436.15                   694.46                   728.25                   748.02                   751.99                   354.97                   435.85                   696.21                   730.44                   750.78                   754.83                   336.42                   413.16                   658.90                   690.58                   709.18                   712.98                   220.58                   264.53                   388.78                   402.64                   411.24                   413.42                   77.183                   87.139                   111.65                   114.11                   115.61                   116.08                   36.376                   39.452                   46.801                   47.595                   48.130                   48.306                   28.073                   29.468                   33.091                   33.519                   33.785                   33.897                   26.432                   27.571                   30.065                   30.325                   30.496                   30.543
22.000                   3.0000                   1.0000                   1.4000                   10000                    1000.0                   40.000                   413.46                   497.17                   779.29                   819.99                   842.64                   846.94                   413.65                   497.54                   780.19                   820.96                   843.68                   847.98                   413.21                   496.40                   775.41                   815.63                   837.74                   841.94                   412.60                   496.05                   776.54                   817.02                   839.58                   843.85                   392.01                   471.40                   729.41                   766.05                   786.86                   790.93                   260.91                   307.14                   439.52                   454.42                   463.66                   465.93                   91.296                   101.54                   126.96                   129.55                   131.18                   131.71                   40.485                   43.561                   51.091                   51.916                   52.423                   52.568                   30.107                   31.469                   34.873                   35.236                   35.442                   35.524                   27.943                   29.008                   31.325                   31.551                   31.688                   31.722
22.000                   3.0000                   1.0000                   1.4000                   10000                    1000.0                   45.000                   468.67                   554.10                   858.06                   903.29                   926.87                   931.12                   468.88                   554.45                   858.89                   904.10                   927.63                   931.88                   468.24                   553.19                   854.51                   899.51                   922.81                   927.03                   467.60                   552.78                   855.09                   900.20                   923.77                   928.03                   445.31                   526.59                   798.99                   840.03                   862.41                   866.63                   300.91                   349.33                   489.65                   505.58                   515.37                   517.70                   105.81                   116.31                   142.49                   145.18                   146.90                   147.46                   44.581                   47.584                   54.964                   55.754                   56.195                   56.303                   32.185                   33.499                   36.676                   36.986                   37.146                   37.203                   29.442                   30.412                   32.505                   32.692                   32.796                   32.820
22.000                   3.0000                   1.0000                   1.4000                   10000                    1000.0                   50.000                   519.43                   605.15                   932.35                   975.21                   996.11                   999.75                   519.63                   605.44                   932.94                   975.76                   996.62                   1000.3                   518.89                   604.25                   930.17                   973.13                   994.14                   997.80                   518.23                   603.81                   930.70                   973.78                   994.82                   998.50                   494.58                   576.94                   875.38                   918.29                   940.28                   944.32                   339.90                   390.49                   538.69                   555.62                   565.79                   568.17                   120.70                   131.42                   158.07                   160.76                   162.46                   163.00                   48.499                   51.275                   57.646                   58.240                   58.592                   58.702                   34.262                   35.480                   38.248                   38.497                   38.640                   38.688                   30.879                   31.723                   33.416                   33.545                   33.611                   33.629
22.000                   3.0000                   1.0000                   1.4000                   10000                    1000.0                   55.000                   568.16                   652.96                   983.07                   1018.2                   1033.3                   1035.7                   568.34                   653.20                   983.45                   1018.5                   1033.6                   1036.0                   567.55                   652.12                   981.75                   1017.1                   1032.4                   1034.9                   566.88                   651.69                   982.81                   1018.3                   1033.6                   1036.0                   542.24                   624.63                   939.48                   979.40                   998.93                   1002.4                   378.31                   430.80                   585.13                   602.75                   613.22                   615.62                   135.70                   146.61                   173.47                   176.09                   177.70                   178.22                   52.333                   54.884                   60.620                   61.142                   61.460                   61.566                   36.328                   37.457                   39.997                   40.230                   40.372                   40.419                   32.296                   33.025                   34.477                   34.592                   34.656                   34.676
22.000                   3.0000                   1.0000                   1.4000                   10000                    1000.0                   60.000                   611.94                   693.66                   1005.5                   1032.0                   1042.3                   1043.7                   612.10                   693.95                   1006.3                   1032.9                   1043.1                   1044.5                   611.34                   693.03                   1004.9                   1031.8                   1042.2                   1043.7                   610.69                   692.67                   1006.3                   1033.1                   1043.4                   1044.8                   586.09                   666.90                   980.13                   1013.3                   1028.2                   1030.7                   415.18                   468.95                   626.30                   644.32                   654.99                   657.39                   150.83                   161.90                   189.13                   191.79                   193.43                   193.95                   56.062                   58.464                   64.000                   64.518                   64.835                   64.941                   38.382                   39.449                   41.905                   42.136                   42.277                   42.324                   33.702                   34.362                   35.769                   35.889                   35.954                   35.975
22.000                   3.0000                   1.0000                   1.4000                   10000                    1000.0                   65.000                   650.68                   727.82                   1017.0                   1037.4                   1044.7                   1045.6                   650.81                   728.25                   1020.6                   1041.3                   1048.6                   1049.4                   650.13                   727.37                   1019.3                   1040.1                   1047.5                   1048.3                   649.54                   727.19                   1020.0                   1040.5                   1047.7                   1048.5                   625.83                   703.88                   1005.1                   1031.1                   1041.3                   1042.8                   450.33                   504.84                   663.20                   681.55                   692.34                   694.72                   166.02                   177.24                   204.91                   207.62                   209.29                   209.82                   59.809                   62.142                   67.618                   68.136                   68.454                   68.559                   40.445                   41.475                   43.888                   44.116                   44.255                   44.302                   35.135                   35.756                   37.124                   37.245                   37.310                   37.330
22.000                   3.0000                   1.0000                   1.4000                   10000                    1000.0                   70.000                   680.11                   755.97                   1023.4                   1040.1                   1045.9                   1046.5                   680.18                   756.53                   1030.0                   1047.1                   1052.7                   1053.2                   679.59                   755.65                   1029.2                   1046.5                   1052.2                   1052.8                   679.14                   755.79                   1030.7                   1047.6                   1053.0                   1053.5                   657.62                   732.93                   1017.8                   1038.4                   1045.8                   1046.7                   481.99                   536.24                   692.92                   711.28                   722.15                   724.53                   181.19                   192.55                   220.66                   223.42                   225.12                   225.66                   63.736                   66.052                   71.510                   72.026                   72.343                   72.448                   42.566                   43.575                   45.956                   46.182                   46.321                   46.367                   36.651                   37.240                   38.495                   38.602                   38.664                   38.684
22.000                   3.0000                   1.0000                   1.4000                   10000                    1000.0                   75.000                   705.69                   784.15                   1030.7                   1044.4                   1048.8                   1049.1                   705.70                   784.80                   1038.4                   1052.5                   1056.7                   1056.9                   705.19                   783.93                   1038.1                   1052.4                   1056.6                   1056.9                   704.88                   784.42                   1040.3                   1054.1                   1058.0                   1058.2                   686.30                   761.53                   1029.3                   1045.5                   1050.6                   1051.0                   512.32                   565.97                   720.43                   738.84                   749.76                   752.14                   196.28                   207.80                   236.35                   239.16                   240.89                   241.44                   67.735                   70.038                   75.479                   75.994                   76.310                   76.416                   44.722                   45.711                   48.065                   48.290                   48.428                   48.474                   38.204                   38.767                   39.934                   40.031                   40.090                   40.110