% Model:              batchmodel_COIL_N_22_COIL_kr_2.25_COIL_kh_1_COIL_kturn_1.1_FUNZ_freq_6000_FUNZ_I_eff_1000.mph
% Version:            COMSOL 5.6.0.280
% Date:               Feb 2 2022, 17:42
% Table:              Tabella 1 - GRIGLIA_T
% COIL_N                 COIL_kr                  COIL_kh                  COIL_kturn               FUNZ_freq                FUNZ_I_eff               Time (s)                 Temperatura (degC), Punto: (0, 0)Temperatura (degC), Punto: (15, 0)Temperatura (degC), Punto: (27.483, 0)Temperatura (degC), Punto: (28.742, 0)Temperatura (degC), Punto: (29.497, 0)Temperatura (degC), Punto: (29.748, 0)Temperatura (degC), Punto: (0, 62.5)Temperatura (degC), Punto: (15, 62.5)Temperatura (degC), Punto: (27.483, 62.5)Temperatura (degC), Punto: (28.742, 62.5)Temperatura (degC), Punto: (29.497, 62.5)Temperatura (degC), Punto: (29.748, 62.5)Temperatura (degC), Punto: (0, 125)Temperatura (degC), Punto: (15, 125)Temperatura (degC), Punto: (27.483, 125)Temperatura (degC), Punto: (28.742, 125)Temperatura (degC), Punto: (29.497, 125)Temperatura (degC), Punto: (29.748, 125)Temperatura (degC), Punto: (0, 187.5)Temperatura (degC), Punto: (15, 187.5)Temperatura (degC), Punto: (27.483, 187.5)Temperatura (degC), Punto: (28.742, 187.5)Temperatura (degC), Punto: (29.497, 187.5)Temperatura (degC), Punto: (29.748, 187.5)Temperatura (degC), Punto: (0, 250)Temperatura (degC), Punto: (15, 250)Temperatura (degC), Punto: (27.483, 250)Temperatura (degC), Punto: (28.742, 250)Temperatura (degC), Punto: (29.497, 250)Temperatura (degC), Punto: (29.748, 250)Temperatura (degC), Punto: (0, 312.5)Temperatura (degC), Punto: (15, 312.5)Temperatura (degC), Punto: (27.483, 312.5)Temperatura (degC), Punto: (28.742, 312.5)Temperatura (degC), Punto: (29.497, 312.5)Temperatura (degC), Punto: (29.748, 312.5)Temperatura (degC), Punto: (0, 375)Temperatura (degC), Punto: (15, 375)Temperatura (degC), Punto: (27.483, 375)Temperatura (degC), Punto: (28.742, 375)Temperatura (degC), Punto: (29.497, 375)Temperatura (degC), Punto: (29.748, 375)Temperatura (degC), Punto: (0, 437.5)Temperatura (degC), Punto: (15, 437.5)Temperatura (degC), Punto: (27.483, 437.5)Temperatura (degC), Punto: (28.742, 437.5)Temperatura (degC), Punto: (29.497, 437.5)Temperatura (degC), Punto: (29.748, 437.5)Temperatura (degC), Punto: (0, 468.75)Temperatura (degC), Punto: (15, 468.75)Temperatura (degC), Punto: (27.483, 468.75)Temperatura (degC), Punto: (28.742, 468.75)Temperatura (degC), Punto: (29.497, 468.75)Temperatura (degC), Punto: (29.748, 468.75)Temperatura (degC), Punto: (0, 492.19)Temperatura (degC), Punto: (15, 492.19)Temperatura (degC), Punto: (27.483, 492.19)Temperatura (degC), Punto: (28.742, 492.19)Temperatura (degC), Punto: (29.497, 492.19)Temperatura (degC), Punto: (29.748, 492.19)
22.000                   2.2500                   1.0000                   1.1000                   6000.0                   1000.0                   0.0000                   20.000                   20.000                   20.000                   20.000                   20.055                   20.168                   20.000                   20.000                   20.000                   20.000                   20.055                   20.168                   20.000                   20.000                   20.000                   20.000                   20.055                   20.168                   20.000                   20.000                   20.000                   20.000                   20.054                   20.166                   20.000                   20.000                   20.000                   20.000                   20.019                   20.091                   20.000                   20.000                   20.000                   20.000                   20.000                   20.008                   20.000                   20.000                   20.000                   20.000                   20.000                   20.001                   20.000                   20.000                   20.000                   20.000                   20.000                   20.000                   20.000                   20.000                   20.000                   20.000                   20.000                   20.000                   20.000                   20.000                   20.000                   20.000                   20.000                   20.000
22.000                   2.2500                   1.0000                   1.1000                   6000.0                   1000.0                   5.0000                   25.586                   48.428                   176.61                   199.66                   213.58                   217.06                   25.543                   48.298                   175.75                   198.79                   212.41                   215.87                   25.475                   47.988                   172.37                   194.76                   207.68                   211.03                   25.380                   47.776                   172.96                   194.40                   207.00                   210.23                   22.807                   34.293                   96.786                   108.01                   114.64                   116.72                   20.509                   22.623                   34.968                   37.279                   38.435                   38.599                   20.190                   21.043                   27.534                   29.019                   29.531                   29.559                   20.058                   20.283                   21.770                   22.120                   22.316                   22.368                   20.053                   20.327                   22.803                   23.357                   23.619                   23.669                   20.016                   20.071                   20.270                   20.291                   20.303                   20.307
22.000                   2.2500                   1.0000                   1.1000                   6000.0                   1000.0                   10.000                   65.887                   117.53                   283.56                   310.61                   326.97                   330.97                   65.774                   117.28                   282.52                   309.37                   325.75                   329.75                   65.182                   115.99                   279.60                   306.42                   322.94                   326.98                   64.157                   114.10                   274.27                   300.48                   316.73                   320.74                   44.018                   70.974                   152.82                   165.38                   173.33                   175.48                   24.935                   30.159                   43.559                   45.135                   46.244                   46.642                   22.106                   24.328                   29.010                   29.279                   29.482                   29.593                   20.641                   21.251                   22.638                   22.785                   22.874                   22.903                   20.495                   21.118                   22.669                   22.811                   22.895                   22.919                   20.203                   20.374                   20.710                   20.744                   20.765                   20.771
22.000                   2.2500                   1.0000                   1.1000                   6000.0                   1000.0                   15.000                   129.42                   196.09                   402.14                   437.03                   458.08                   462.61                   129.15                   195.43                   399.11                   433.21                   453.48                   457.94                   127.95                   193.50                   393.44                   426.36                   445.94                   450.31                   124.97                   189.14                   386.25                   419.09                   438.57                   442.79                   79.009                   113.72                   209.29                   223.55                   232.21                   234.51                   32.655                   39.357                   56.022                   58.146                   59.234                   59.500                   25.089                   27.531                   33.253                   34.041                   34.389                   34.458                   21.634                   22.402                   24.335                   24.626                   24.793                   24.834                   21.132                   21.848                   24.139                   24.486                   24.634                   24.666                   20.563                   20.791                   21.178                   21.208                   21.222                   21.227
22.000                   2.2500                   1.0000                   1.1000                   6000.0                   1000.0                   20.000                   201.06                   279.73                   529.02                   571.93                   597.22                   602.42                   200.40                   278.23                   522.41                   563.98                   588.36                   593.51                   198.54                   275.20                   511.80                   551.05                   573.92                   578.88                   193.23                   268.37                   502.62                   541.66                   564.43                   569.18                   119.96                   160.50                   271.06                   287.78                   297.76                   300.28                   43.112                   52.121                   75.737                   78.672                   80.010                   80.288                   29.064                   32.426                   41.698                   43.018                   43.558                   43.630                   23.029                   24.159                   27.322                   27.806                   28.078                   28.133                   22.045                   23.183                   27.513                   28.179                   28.497                   28.566                   21.088                   21.405                   21.924                   21.954                   21.967                   21.970
22.000                   2.2500                   1.0000                   1.1000                   6000.0                   1000.0                   25.000                   274.73                   362.44                   640.54                   689.09                   717.12                   722.81                   273.68                   360.47                   634.63                   682.48                   710.38                   716.12                   271.19                   356.61                   623.20                   668.92                   695.53                   701.12                   263.48                   347.17                   609.79                   654.44                   680.47                   685.80                   164.78                   210.26                   334.57                   353.58                   364.87                   367.61                   56.628                   67.628                   95.247                   98.609                   100.11                   100.46                   34.552                   38.889                   50.206                   51.749                   52.433                   52.513                   25.028                   26.499                   30.013                   30.397                   30.587                   30.639                   23.304                   24.801                   30.007                   30.739                   31.102                   31.187                   21.838                   22.241                   22.865                   22.896                   22.908                   22.912
22.000                   2.2500                   1.0000                   1.1000                   6000.0                   1000.0                   30.000                   345.49                   437.91                   730.52                   787.60                   818.40                   824.30                   344.14                   435.76                   725.42                   782.01                   812.82                   818.77                   341.18                   431.50                   714.57                   769.37                   799.53                   805.42                   331.28                   419.70                   694.36                   745.32                   774.30                   779.98                   210.85                   259.95                   393.94                   414.30                   426.50                   429.39                   70.978                   81.837                   106.02                   108.79                   110.21                   110.60                   39.969                   44.005                   52.495                   53.426                   53.865                   53.942                   27.009                   28.377                   31.001                   31.227                   31.335                   31.368                   24.431                   25.717                   29.086                   29.465                   29.648                   29.693                   22.641                   23.031                   23.605                   23.638                   23.655                   23.659
22.000                   2.2500                   1.0000                   1.1000                   6000.0                   1000.0                   35.000                   412.66                   507.76                   818.58                   882.16                   913.87                   919.58                   411.10                   505.54                   813.64                   876.89                   908.53                   914.25                   407.79                   501.08                   802.44                   864.44                   896.02                   901.78                   396.01                   487.25                   775.98                   834.16                   864.99                   870.72                   256.81                   308.76                   450.59                   472.06                   484.95                   487.95                   85.154                   95.007                   114.75                   116.93                   118.24                   118.67                   44.886                   48.134                   53.518                   53.951                   54.193                   54.272                   28.783                   29.861                   31.499                   31.618                   31.684                   31.706                   25.376                   26.272                   27.764                   27.858                   27.904                   27.918                   23.414                   23.747                   24.228                   24.264                   24.284                   24.291
22.000                   2.2500                   1.0000                   1.1000                   6000.0                   1000.0                   40.000                   475.64                   572.23                   910.85                   974.61                   1003.7                   1008.6                   473.95                   569.99                   905.54                   969.40                   998.59                   1003.5                   470.40                   565.44                   893.00                   956.56                   986.16                   991.24                   457.04                   550.05                   863.03                   926.78                   957.21                   962.55                   301.92                   356.18                   504.65                   527.18                   540.55                   543.59                   98.634                   107.28                   124.82                   126.93                   128.23                   128.66                   49.044                   51.420                   55.456                   55.881                   56.137                   56.222                   30.235                   30.972                   32.070                   32.178                   32.247                   32.273                   26.101                   26.627                   27.385                   27.451                   27.494                   27.509                   24.112                   24.369                   24.764                   24.800                   24.820                   24.827
22.000                   2.2500                   1.0000                   1.1000                   6000.0                   1000.0                   45.000                   533.53                   629.30                   993.83                   1045.9                   1063.9                   1066.2                   531.79                   627.09                   984.52                   1037.0                   1056.0                   1058.5                   528.06                   622.34                   955.09                   1005.8                   1027.8                   1031.3                   513.33                   606.40                   940.49                   997.64                   1023.0                   1027.1                   345.25                   400.99                   551.36                   573.76                   586.91                   589.85                   111.31                   119.28                   136.37                   138.49                   139.80                   140.22                   52.265                   54.022                   57.218                   57.568                   57.779                   57.849                   31.284                   31.783                   32.620                   32.707                   32.759                   32.777                   26.616                   26.931                   27.431                   27.480                   27.509                   27.519                   24.693                   24.881                   25.183                   25.211                   25.228                   25.233
22.000                   2.2500                   1.0000                   1.1000                   6000.0                   1000.0                   50.000                   584.83                   678.15                   1057.2                   1092.4                   1101.0                   1101.5                   583.17                   676.08                   1040.2                   1076.2                   1085.8                   1086.5                   579.24                   669.36                   964.76                   999.99                   1015.7                   1018.3                   564.14                   655.79                   1015.5                   1060.7                   1074.6                   1076.1                   385.50                   441.22                   588.61                   610.20                   622.85                   625.64                   123.58                   131.23                   147.86                   149.94                   151.22                   151.64                   54.841                   56.269                   59.074                   59.403                   59.603                   59.670                   32.060                   32.440                   33.153                   33.235                   33.284                   33.301                   27.039                   27.262                   27.671                   27.716                   27.744                   27.754                   25.170                   25.315                   25.567                   25.593                   25.609                   25.614
22.000                   2.2500                   1.0000                   1.1000                   6000.0                   1000.0                   55.000                   628.85                   718.81                   1077.3                   1102.2                   1107.5                   1107.5                   627.39                   716.93                   1062.4                   1088.0                   1094.1                   1094.2                   623.12                   707.22                   973.49                   1001.0                   1013.3                   1015.3                   609.00                   699.01                   1068.4                   1098.0                   1104.9                   1105.1                   422.24                   477.11                   621.25                   642.61                   655.13                   657.85                   135.70                   143.17                   159.64                   161.73                   163.01                   163.43                   57.138                   58.399                   61.023                   61.345                   61.542                   61.608                   32.713                   33.033                   33.684                   33.763                   33.812                   33.828                   27.437                   27.620                   27.986                   28.030                   28.057                   28.066                   25.591                   25.712                   25.939                   25.964                   25.980                   25.985
22.000                   2.2500                   1.0000                   1.1000                   6000.0                   1000.0                   60.000                   666.41                   753.89                   1084.2                   1103.1                   1106.9                   1106.6                   665.23                   752.29                   1073.4                   1092.9                   1097.1                   1096.9                   660.65                   738.96                   986.23                   1008.6                   1018.2                   1019.6                   648.36                   736.65                   1089.5                   1109.8                   1113.6                   1113.3                   456.01                   509.83                   650.84                   672.02                   684.41                   687.08                   147.76                   155.14                   171.59                   173.69                   174.98                   175.40                   59.358                   60.526                   63.055                   63.373                   63.568                   63.634                   33.321                   33.607                   34.223                   34.300                   34.348                   34.364                   27.832                   27.992                   28.336                   28.379                   28.405                   28.414                   25.988                   26.095                   26.307                   26.332                   26.347                   26.352
22.000                   2.2500                   1.0000                   1.1000                   6000.0                   1000.0                   65.000                   697.47                   787.20                   1085.1                   1100.4                   1103.0                   1102.6                   696.59                   786.22                   1079.1                   1094.6                   1097.6                   1097.2                   691.89                   768.37                   1001.9                   1020.7                   1028.0                   1028.9                   681.89                   771.52                   1093.8                   1108.9                   1111.2                   1110.7                   487.03                   539.59                   677.03                   697.90                   710.09                   712.70                   159.76                   167.10                   183.57                   185.68                   186.98                   187.40                   61.578                   62.697                   65.171                   65.486                   65.680                   65.745                   33.910                   34.178                   34.772                   34.848                   34.895                   34.911                   28.230                   28.378                   28.707                   28.750                   28.776                   28.785                   26.371                   26.470                   26.673                   26.697                   26.712                   26.717
22.000                   2.2500                   1.0000                   1.1000                   6000.0                   1000.0                   70.000                   717.70                   817.94                   1082.2                   1095.2                   1097.3                   1096.8                   716.94                   817.59                   1079.7                   1092.7                   1094.9                   1094.4                   712.14                   798.95                   1019.3                   1035.6                   1041.2                   1041.7                   704.05                   803.60                   1089.9                   1102.7                   1104.5                   1104.0                   513.08                   563.97                   697.06                   717.35                   729.29                   731.83                   171.55                   178.87                   195.31                   197.41                   198.71                   199.13                   63.933                   65.032                   67.476                   67.788                   67.980                   68.045                   34.509                   34.769                   35.351                   35.425                   35.472                   35.487                   28.639                   28.782                   29.104                   29.146                   29.172                   29.180                   26.749                   26.845                   27.042                   27.066                   27.080                   27.085
22.000                   2.2500                   1.0000                   1.1000                   6000.0                   1000.0                   75.000                   737.93                   848.68                   1079.4                   1090.1                   1091.6                   1091.0                   737.29                   848.96                   1080.2                   1090.8                   1092.3                   1091.7                   732.39                   829.53                   1036.7                   1050.6                   1054.5                   1054.5                   726.22                   835.67                   1086.1                   1096.6                   1097.8                   1097.2                   539.14                   588.35                   717.09                   736.80                   748.49                   750.96                   183.34                   190.63                   207.04                   209.15                   210.45                   210.87                   66.288                   67.367                   69.781                   70.090                   70.280                   70.344                   35.109                   35.360                   35.929                   36.003                   36.048                   36.064                   29.048                   29.186                   29.501                   29.542                   29.567                   29.576                   27.126                   27.219                   27.411                   27.434                   27.448                   27.453