% Model:              batchmodel_COIL_N_22_COIL_kr_2.25_COIL_kh_1_COIL_kturn_1.1_FUNZ_freq_2000_FUNZ_I_eff_1000.mph
% Version:            COMSOL 5.6.0.280
% Date:               Feb 2 2022, 17:04
% Table:              Tabella 1 - GRIGLIA_T
% COIL_N                 COIL_kr                  COIL_kh                  COIL_kturn               FUNZ_freq                FUNZ_I_eff               Time (s)                 Temperatura (degC), Punto: (0, 0)Temperatura (degC), Punto: (15, 0)Temperatura (degC), Punto: (25.641, 0)Temperatura (degC), Punto: (27.821, 0)Temperatura (degC), Punto: (29.128, 0)Temperatura (degC), Punto: (29.564, 0)Temperatura (degC), Punto: (0, 62.5)Temperatura (degC), Punto: (15, 62.5)Temperatura (degC), Punto: (25.641, 62.5)Temperatura (degC), Punto: (27.821, 62.5)Temperatura (degC), Punto: (29.128, 62.5)Temperatura (degC), Punto: (29.564, 62.5)Temperatura (degC), Punto: (0, 125)Temperatura (degC), Punto: (15, 125)Temperatura (degC), Punto: (25.641, 125)Temperatura (degC), Punto: (27.821, 125)Temperatura (degC), Punto: (29.128, 125)Temperatura (degC), Punto: (29.564, 125)Temperatura (degC), Punto: (0, 187.5)Temperatura (degC), Punto: (15, 187.5)Temperatura (degC), Punto: (25.641, 187.5)Temperatura (degC), Punto: (27.821, 187.5)Temperatura (degC), Punto: (29.128, 187.5)Temperatura (degC), Punto: (29.564, 187.5)Temperatura (degC), Punto: (0, 250)Temperatura (degC), Punto: (15, 250)Temperatura (degC), Punto: (25.641, 250)Temperatura (degC), Punto: (27.821, 250)Temperatura (degC), Punto: (29.128, 250)Temperatura (degC), Punto: (29.564, 250)Temperatura (degC), Punto: (0, 312.5)Temperatura (degC), Punto: (15, 312.5)Temperatura (degC), Punto: (25.641, 312.5)Temperatura (degC), Punto: (27.821, 312.5)Temperatura (degC), Punto: (29.128, 312.5)Temperatura (degC), Punto: (29.564, 312.5)Temperatura (degC), Punto: (0, 375)Temperatura (degC), Punto: (15, 375)Temperatura (degC), Punto: (25.641, 375)Temperatura (degC), Punto: (27.821, 375)Temperatura (degC), Punto: (29.128, 375)Temperatura (degC), Punto: (29.564, 375)Temperatura (degC), Punto: (0, 437.5)Temperatura (degC), Punto: (15, 437.5)Temperatura (degC), Punto: (25.641, 437.5)Temperatura (degC), Punto: (27.821, 437.5)Temperatura (degC), Punto: (29.128, 437.5)Temperatura (degC), Punto: (29.564, 437.5)Temperatura (degC), Punto: (0, 468.75)Temperatura (degC), Punto: (15, 468.75)Temperatura (degC), Punto: (25.641, 468.75)Temperatura (degC), Punto: (27.821, 468.75)Temperatura (degC), Punto: (29.128, 468.75)Temperatura (degC), Punto: (29.564, 468.75)Temperatura (degC), Punto: (0, 492.19)Temperatura (degC), Punto: (15, 492.19)Temperatura (degC), Punto: (25.641, 492.19)Temperatura (degC), Punto: (27.821, 492.19)Temperatura (degC), Punto: (29.128, 492.19)Temperatura (degC), Punto: (29.564, 492.19)
22.000                   2.2500                   1.0000                   1.1000                   2000.0                   1000.0                   0.0000                   20.000                   20.000                   20.000                   20.000                   20.017                   20.054                   20.000                   20.000                   20.000                   20.000                   20.017                   20.054                   20.000                   20.000                   20.000                   20.000                   20.017                   20.054                   20.000                   20.000                   20.000                   20.000                   20.017                   20.053                   20.000                   20.000                   20.000                   20.000                   20.005                   20.029                   20.000                   20.000                   20.000                   20.000                   20.000                   20.002                   20.000                   20.000                   20.000                   20.000                   20.000                   20.000                   20.000                   20.000                   20.000                   20.000                   20.000                   20.000                   20.000                   20.000                   20.000                   20.000                   20.000                   20.000                   20.000                   20.000                   20.000                   20.000                   20.000                   20.000
22.000                   2.2500                   1.0000                   1.1000                   2000.0                   1000.0                   5.0000                   23.532                   34.049                   77.662                   93.956                   104.59                   107.37                   23.502                   33.922                   77.342                   93.761                   104.29                   107.01                   23.490                   33.886                   77.020                   93.195                   103.56                   106.21                   23.553                   34.167                   77.701                   93.240                   103.56                   106.98                   21.936                   27.722                   51.873                   60.979                   67.182                   69.181                   20.318                   21.270                   25.202                   26.550                   27.457                   27.698                   20.038                   20.193                   20.965                   21.285                   21.509                   21.588                   19.993                   19.977                   19.971                   19.994                   20.011                   20.011                   20.001                   20.001                   19.953                   19.907                   19.863                   19.848                   20.004                   20.015                   20.057                   20.070                   20.080                   20.083
22.000                   2.2500                   1.0000                   1.1000                   2000.0                   1000.0                   10.000                   42.062                   65.997                   126.03                   145.31                   157.83                   161.31                   42.058                   66.095                   126.32                   145.51                   157.90                   161.37                   41.888                   65.723                   125.73                   145.08                   157.71                   161.27                   42.403                   66.946                   127.70                   146.59                   158.62                   161.68                   32.373                   45.800                   78.177                   87.817                   93.827                   95.588                   22.208                   24.663                   30.779                   32.743                   33.950                   34.308                   20.367                   20.886                   22.114                   22.403                   22.553                   22.598                   20.028                   20.136                   20.625                   20.808                   20.903                   20.925                   20.009                   20.038                   20.229                   20.337                   20.429                   20.461                   20.026                   20.065                   20.183                   20.219                   20.241                   20.248
22.000                   2.2500                   1.0000                   1.1000                   2000.0                   1000.0                   15.000                   73.750                   105.18                   175.16                   196.12                   209.56                   213.03                   73.808                   105.31                   175.40                   196.39                   209.82                   213.29                   73.561                   104.96                   174.92                   195.87                   209.23                   212.68                   73.793                   105.06                   173.75                   194.07                   207.04                   210.45                   49.976                   67.024                   103.38                   113.86                   120.69                   122.69                   25.675                   28.763                   34.879                   36.460                   37.470                   37.821                   21.136                   21.830                   23.154                   23.496                   23.710                   23.779                   20.255                   20.462                   20.870                   20.959                   21.016                   21.037                   20.085                   20.164                   20.350                   20.396                   20.420                   20.428                   20.086                   20.147                   20.271                   20.303                   20.324                   20.331
22.000                   2.2500                   1.0000                   1.1000                   2000.0                   1000.0                   20.000                   111.25                   147.16                   224.45                   247.30                   261.76                   265.37                   111.32                   147.28                   224.67                   247.55                   262.00                   265.61                   111.06                   146.94                   224.21                   247.04                   261.40                   264.98                   109.94                   145.10                   220.09                   242.08                   255.96                   259.52                   70.752                   89.804                   129.04                   140.22                   147.47                   149.55                   29.935                   33.259                   39.509                   41.096                   42.118                   42.477                   22.080                   22.825                   24.210                   24.581                   24.820                   24.900                   20.508                   20.714                   21.067                   21.147                   21.203                   21.224                   20.197                   20.289                   20.469                   20.510                   20.531                   20.538                   20.164                   20.229                   20.349                   20.380                   20.401                   20.409
22.000                   2.2500                   1.0000                   1.1000                   2000.0                   1000.0                   25.000                   151.02                   190.09                   272.91                   297.28                   312.58                   316.29                   151.09                   190.19                   273.04                   297.42                   312.71                   316.42                   150.82                   189.84                   272.58                   296.93                   312.20                   315.90                   147.86                   185.73                   265.64                   289.08                   303.80                   307.40                   92.869                   113.25                   154.61                   166.24                   173.72                   175.83                   34.608                   38.054                   44.546                   46.269                   47.380                   47.755                   23.089                   23.834                   25.207                   25.568                   25.796                   25.873                   20.756                   20.937                   21.257                   21.343                   21.402                   21.423                   20.324                   20.420                   20.606                   20.658                   20.692                   20.705                   20.249                   20.316                   20.439                   20.472                   20.493                   20.501
22.000                   2.2500                   1.0000                   1.1000                   2000.0                   1000.0                   30.000                   191.75                   233.64                   322.60                   348.98                   365.41                   369.27                   191.80                   233.70                   322.66                   349.00                   365.43                   369.29                   191.47                   233.26                   321.94                   348.22                   364.60                   368.45                   186.41                   226.70                   311.88                   336.98                   352.61                   356.29                   115.68                   137.28                   180.95                   193.20                   201.07                   203.26                   39.675                   43.271                   50.072                   51.905                   53.089                   53.483                   24.157                   24.913                   26.289                   26.643                   26.868                   26.944                   20.979                   21.131                   21.406                   21.485                   21.541                   21.562                   20.455                   20.551                   20.736                   20.788                   20.824                   20.837                   20.340                   20.408                   20.533                   20.567                   20.588                   20.595
22.000                   2.2500                   1.0000                   1.1000                   2000.0                   1000.0                   35.000                   232.74                   277.14                   372.21                   400.62                   418.05                   422.01                   232.72                   277.07                   371.93                   400.23                   417.63                   421.59                   232.25                   276.45                   370.85                   398.99                   416.31                   420.25                   224.87                   267.31                   357.58                   384.30                   400.73                   404.49                   139.74                   162.49                   208.64                   221.65                   229.98                   232.25                   46.066                   49.901                   57.155                   59.105                   60.354                   60.761                   25.643                   26.462                   27.918                   28.283                   28.511                   28.590                   21.267                   21.424                   21.719                   21.803                   21.861                   21.882                   20.610                   20.710                   20.902                   20.956                   20.992                   21.006                   20.452                   20.522                   20.651                   20.685                   20.707                   20.714
22.000                   2.2500                   1.0000                   1.1000                   2000.0                   1000.0                   40.000                   273.81                   320.64                   421.80                   452.24                   470.64                   474.69                   273.68                   320.39                   421.10                   451.35                   469.69                   473.72                   273.08                   319.59                   419.64                   449.61                   467.83                   471.84                   263.31                   307.82                   403.12                   431.46                   448.65                   452.48                   164.16                   188.03                   236.74                   250.54                   259.33                   261.68                   52.841                   56.942                   64.691                   66.760                   68.072                   68.489                   27.252                   28.148                   29.707                   30.086                   30.322                   30.402                   21.575                   21.747                   22.078                   22.171                   22.233                   22.255                   20.773                   20.877                   21.079                   21.135                   21.172                   21.185                   20.570                   20.643                   20.776                   20.811                   20.833                   20.840
22.000                   2.2500                   1.0000                   1.1000                   2000.0                   1000.0                   45.000                   314.87                   364.13                   471.38                   503.87                   523.23                   527.36                   314.65                   363.71                   470.26                   502.48                   521.74                   525.86                   313.91                   362.72                   468.42                   500.23                   519.34                   523.43                   301.75                   348.33                   448.67                   478.62                   496.56                   500.47                   188.58                   213.58                   264.83                   279.43                   288.69                   291.12                   59.616                   63.983                   72.227                   74.416                   75.789                   76.217                   28.860                   29.834                   31.496                   31.890                   32.132                   32.214                   21.882                   22.069                   22.438                   22.539                   22.605                   22.628                   20.936                   21.044                   21.255                   21.314                   21.351                   21.364                   20.689                   20.763                   20.901                   20.937                   20.959                   20.967
22.000                   2.2500                   1.0000                   1.1000                   2000.0                   1000.0                   50.000                   354.46                   405.98                   519.23                   553.93                   574.36                   578.57                   354.09                   405.30                   517.42                   551.62                   571.83                   576.03                   353.28                   404.25                   515.42                   549.06                   569.05                   573.23                   338.84                   387.27                   492.23                   523.68                   542.35                   546.34                   213.27                   239.39                   293.18                   308.58                   318.32                   320.83                   67.326                   71.896                   80.455                   82.702                   84.108                   84.545                   30.866                   31.918                   33.686                   34.099                   34.352                   34.437                   22.269                   22.470                   22.863                   22.970                   23.038                   23.062                   21.126                   21.239                   21.458                   21.518                   21.557                   21.570                   20.828                   20.905                   21.046                   21.082                   21.105                   21.113
22.000                   2.2500                   1.0000                   1.1000                   2000.0                   1000.0                   55.000                   393.93                   447.70                   566.94                   603.87                   625.38                   629.67                   393.42                   446.75                   564.41                   600.62                   621.77                   626.04                   392.54                   445.65                   562.29                   597.74                   618.62                   622.89                   375.84                   426.10                   535.64                   568.58                   587.97                   592.04                   237.99                   265.22                   321.55                   337.76                   347.98                   350.55                   75.108                   79.876                   88.735                   91.036                   92.474                   92.920                   32.901                   34.032                   35.907                   36.339                   36.602                   36.690                   22.661                   22.876                   23.294                   23.405                   23.476                   23.500                   21.319                   21.435                   21.663                   21.725                   21.765                   21.778                   20.969                   21.048                   21.193                   21.230                   21.253                   21.261
22.000                   2.2500                   1.0000                   1.1000                   2000.0                   1000.0                   60.000                   433.07                   488.98                   613.80                   652.83                   675.39                   679.75                   432.42                   487.77                   610.62                   648.69                   670.76                   675.11                   431.49                   486.63                   608.40                   645.55                   667.28                   671.63                   412.58                   464.63                   578.60                   612.98                   633.08                   637.24                   262.70                   291.05                   349.92                   366.93                   377.63                   380.27                   82.988                   87.955                   97.119                   99.475                   100.94                   101.40                   34.983                   36.191                   38.174                   38.626                   38.900                   38.991                   23.065                   23.294                   23.735                   23.852                   23.925                   23.950                   21.515                   21.636                   21.871                   21.935                   21.976                   21.989                   21.112                   21.193                   21.341                   21.379                   21.403                   21.411
22.000                   2.2500                   1.0000                   1.1000                   2000.0                   1000.0                   65.000                   468.62                   525.35                   651.36                   690.95                   714.17                   718.59                   467.88                   524.04                   648.11                   686.62                   709.23                   713.62                   466.96                   522.98                   646.20                   683.72                   705.88                   710.28                   446.57                   499.87                   616.59                   652.02                   672.58                   676.80                   287.37                   316.86                   378.32                   396.12                   407.28                   409.97                   91.947                   97.126                   106.64                   109.07                   110.58                   111.04                   37.571                   38.859                   40.952                   41.425                   41.709                   41.803                   23.595                   23.839                   24.300                   24.420                   24.495                   24.520                   21.751                   21.875                   22.116                   22.181                   22.222                   22.236                   21.281                   21.365                   21.515                   21.553                   21.577                   21.585
22.000                   2.2500                   1.0000                   1.1000                   2000.0                   1000.0                   70.000                   504.17                   561.73                   688.91                   729.06                   752.95                   757.43                   503.34                   560.31                   685.60                   724.54                   747.70                   752.13                   502.43                   559.33                   683.99                   721.89                   744.48                   748.94                   480.55                   535.12                   654.59                   691.06                   712.09                   716.36                   312.04                   342.66                   406.72                   425.31                   436.92                   439.66                   100.91                   106.30                   116.17                   118.67                   120.21                   120.69                   40.158                   41.527                   43.731                   44.223                   44.518                   44.615                   24.125                   24.383                   24.864                   24.988                   25.065                   25.091                   21.987                   22.114                   22.360                   22.426                   22.468                   22.482                   21.451                   21.536                   21.689                   21.727                   21.752                   21.760
22.000                   2.2500                   1.0000                   1.1000                   2000.0                   1000.0                   75.000                   538.32                   596.43                   726.36                   768.25                   792.95                   797.50                   537.43                   594.95                   723.04                   763.71                   787.66                   792.15                   536.54                   594.04                   721.68                   761.35                   784.70                   789.22                   513.39                   568.88                   691.15                   729.50                   751.32                   755.66                   336.49                   368.21                   434.75                   454.10                   466.13                   468.91                   110.04                   115.62                   125.82                   128.42                   130.00                   130.50                   42.742                   44.159                   46.439                   46.950                   47.256                   47.358                   24.673                   24.942                   25.438                   25.565                   25.643                   25.670                   22.237                   22.367                   22.617                   22.684                   22.727                   22.741                   21.631                   21.717                   21.872                   21.911                   21.935                   21.944