% Model:              batchmodel_COIL_N_22_COIL_kr_2.25_COIL_kh_1_COIL_kturn_1.4_FUNZ_freq_6000_FUNZ_I_eff_1000.mph
% Version:            COMSOL 5.6.0.280
% Date:               Feb 2 2022, 18:42
% Table:              Tabella 1 - GRIGLIA_T
% COIL_N                 COIL_kr                  COIL_kh                  COIL_kturn               FUNZ_freq                FUNZ_I_eff               Time (s)                 Temperatura (degC), Punto: (0, 0)Temperatura (degC), Punto: (15, 0)Temperatura (degC), Punto: (27.483, 0)Temperatura (degC), Punto: (28.742, 0)Temperatura (degC), Punto: (29.497, 0)Temperatura (degC), Punto: (29.748, 0)Temperatura (degC), Punto: (0, 62.5)Temperatura (degC), Punto: (15, 62.5)Temperatura (degC), Punto: (27.483, 62.5)Temperatura (degC), Punto: (28.742, 62.5)Temperatura (degC), Punto: (29.497, 62.5)Temperatura (degC), Punto: (29.748, 62.5)Temperatura (degC), Punto: (0, 125)Temperatura (degC), Punto: (15, 125)Temperatura (degC), Punto: (27.483, 125)Temperatura (degC), Punto: (28.742, 125)Temperatura (degC), Punto: (29.497, 125)Temperatura (degC), Punto: (29.748, 125)Temperatura (degC), Punto: (0, 187.5)Temperatura (degC), Punto: (15, 187.5)Temperatura (degC), Punto: (27.483, 187.5)Temperatura (degC), Punto: (28.742, 187.5)Temperatura (degC), Punto: (29.497, 187.5)Temperatura (degC), Punto: (29.748, 187.5)Temperatura (degC), Punto: (0, 250)Temperatura (degC), Punto: (15, 250)Temperatura (degC), Punto: (27.483, 250)Temperatura (degC), Punto: (28.742, 250)Temperatura (degC), Punto: (29.497, 250)Temperatura (degC), Punto: (29.748, 250)Temperatura (degC), Punto: (0, 312.5)Temperatura (degC), Punto: (15, 312.5)Temperatura (degC), Punto: (27.483, 312.5)Temperatura (degC), Punto: (28.742, 312.5)Temperatura (degC), Punto: (29.497, 312.5)Temperatura (degC), Punto: (29.748, 312.5)Temperatura (degC), Punto: (0, 375)Temperatura (degC), Punto: (15, 375)Temperatura (degC), Punto: (27.483, 375)Temperatura (degC), Punto: (28.742, 375)Temperatura (degC), Punto: (29.497, 375)Temperatura (degC), Punto: (29.748, 375)Temperatura (degC), Punto: (0, 437.5)Temperatura (degC), Punto: (15, 437.5)Temperatura (degC), Punto: (27.483, 437.5)Temperatura (degC), Punto: (28.742, 437.5)Temperatura (degC), Punto: (29.497, 437.5)Temperatura (degC), Punto: (29.748, 437.5)Temperatura (degC), Punto: (0, 468.75)Temperatura (degC), Punto: (15, 468.75)Temperatura (degC), Punto: (27.483, 468.75)Temperatura (degC), Punto: (28.742, 468.75)Temperatura (degC), Punto: (29.497, 468.75)Temperatura (degC), Punto: (29.748, 468.75)Temperatura (degC), Punto: (0, 492.19)Temperatura (degC), Punto: (15, 492.19)Temperatura (degC), Punto: (27.483, 492.19)Temperatura (degC), Punto: (28.742, 492.19)Temperatura (degC), Punto: (29.497, 492.19)Temperatura (degC), Punto: (29.748, 492.19)
22.000                   2.2500                   1.0000                   1.4000                   6000.0                   1000.0                   0.0000                   20.000                   20.000                   20.000                   20.000                   20.032                   20.125                   20.000                   20.000                   20.000                   20.000                   20.032                   20.125                   20.000                   20.000                   20.000                   20.000                   20.032                   20.125                   20.000                   20.000                   20.000                   20.000                   20.032                   20.125                   20.000                   20.000                   20.000                   20.000                   20.031                   20.123                   20.000                   20.000                   20.000                   20.000                   20.010                   20.067                   20.000                   20.000                   20.000                   20.000                   20.000                   20.005                   20.000                   20.000                   20.000                   20.000                   20.000                   20.001                   20.000                   20.000                   20.000                   20.000                   20.000                   20.000                   20.000                   20.000                   20.000                   20.000                   20.000                   20.000
22.000                   2.2500                   1.0000                   1.4000                   6000.0                   1000.0                   5.0000                   24.991                   39.827                   114.63                   128.55                   137.44                   139.92                   24.987                   39.878                   115.05                   129.03                   137.96                   140.45                   24.979                   39.850                   115.01                   129.06                   138.06                   140.57                   24.984                   39.890                   115.22                   129.27                   138.23                   140.72                   24.951                   39.900                   115.98                   130.13                   139.19                   141.70                   23.046                   32.231                   77.881                   85.899                   90.889                   92.410                   20.676                   22.684                   32.260                   33.824                   34.639                   34.887                   20.285                   21.163                   25.582                   26.268                   26.553                   26.606                   20.225                   20.913                   23.781                   24.095                   24.227                   24.261                   20.120                   20.464                   21.919                   22.093                   22.177                   22.198
22.000                   2.2500                   1.0000                   1.4000                   6000.0                   1000.0                   10.000                   48.935                   80.192                   173.38                   187.35                   196.55                   199.04                   49.103                   80.716                   175.40                   189.40                   198.11                   200.61                   48.978                   80.361                   174.03                   188.02                   196.86                   199.38                   49.026                   80.493                   174.83                   188.96                   197.68                   200.26                   49.379                   81.832                   180.85                   195.75                   204.85                   207.51                   37.476                   56.174                   110.21                   118.11                   122.85                   124.19                   23.454                   26.369                   30.230                   29.871                   29.521                   29.570                   21.311                   22.310                   22.451                   22.192                   21.976                   21.950                   21.009                   21.798                   22.766                   22.915                   22.971                   23.020                   20.581                   20.994                   21.246                   21.182                   21.130                   21.140
22.000                   2.2500                   1.0000                   1.4000                   6000.0                   1000.0                   15.000                   88.600                   129.54                   248.75                   267.60                   279.09                   281.98                   89.027                   130.27                   249.88                   268.78                   280.42                   283.34                   88.684                   129.69                   249.15                   268.08                   279.66                   282.57                   88.787                   129.79                   248.57                   267.37                   278.99                   281.88                   89.804                   131.80                   252.54                   271.51                   283.15                   286.04                   60.652                   84.286                   150.72                   160.94                   166.86                   168.58                   27.368                   31.025                   43.836                   46.448                   47.497                   47.732                   22.465                   23.720                   30.586                   32.524                   33.333                   33.459                   21.782                   22.635                   26.007                   26.562                   26.834                   26.901                   21.129                   21.590                   23.314                   23.631                   23.824                   23.869
22.000                   2.2500                   1.0000                   1.4000                   6000.0                   1000.0                   20.000                   136.70                   185.20                   322.59                   344.00                   357.07                   360.21                   137.26                   186.03                   324.80                   346.52                   359.74                   363.00                   136.78                   185.35                   322.92                   344.06                   356.87                   360.09                   136.98                   185.55                   323.26                   344.71                   357.77                   360.97                   138.03                   187.60                   329.24                   351.45                   365.11                   368.39                   89.599                   118.09                   197.16                   208.83                   215.20                   217.02                   34.429                   40.982                   61.692                   65.196                   66.451                   66.725                   25.302                   28.415                   40.972                   43.560                   44.456                   44.598                   23.952                   26.439                   34.780                   35.906                   36.423                   36.544                   22.488                   23.759                   27.810                   28.347                   28.653                   28.726
22.000                   2.2500                   1.0000                   1.4000                   6000.0                   1000.0                   25.000                   188.98                   243.05                   395.58                   419.42                   433.81                   437.18                   189.59                   243.89                   397.07                   420.95                   435.35                   438.73                   189.05                   243.20                   395.96                   419.81                   434.20                   437.57                   189.40                   243.58                   396.47                   420.35                   434.76                   438.13                   189.62                   244.17                   396.45                   419.83                   433.89                   437.19                   121.27                   152.13                   230.60                   241.46                   248.16                   250.00                   43.265                   50.282                   65.181                   66.713                   67.597                   67.884                   28.917                   32.036                   38.186                   38.661                   38.875                   38.928                   26.708                   29.224                   33.828                   34.110                   34.230                   34.261                   24.335                   25.664                   28.011                   28.152                   28.211                   28.225
22.000                   2.2500                   1.0000                   1.4000                   6000.0                   1000.0                   30.000                   242.50                   301.51                   469.53                   496.09                   511.89                   515.53                   243.08                   302.19                   469.89                   496.17                   511.84                   515.44                   242.56                   301.62                   469.79                   496.44                   512.27                   515.85                   243.05                   302.15                   470.32                   496.87                   512.73                   516.34                   241.69                   300.39                   465.22                   491.00                   506.35                   509.81                   153.83                   186.39                   268.97                   280.53                   287.28                   289.05                   52.945                   60.384                   77.159                   79.346                   80.325                   80.575                   32.937                   36.357                   45.121                   46.603                   47.209                   47.286                   29.749                   32.567                   39.107                   39.909                   40.333                   40.444                   26.537                   28.077                   31.359                   31.691                   31.867                   31.908
22.000                   2.2500                   1.0000                   1.4000                   6000.0                   1000.0                   35.000                   296.22                   359.79                   543.72                   573.49                   590.98                   594.89                   296.68                   360.20                   543.31                   572.78                   590.10                   593.95                   296.24                   359.83                   543.92                   573.82                   591.26                   595.09                   296.84                   360.49                   544.92                   574.85                   592.48                   596.35                   293.43                   356.13                   535.83                   564.77                   581.86                   585.59                   187.07                   221.44                   311.00                   323.89                   331.22                   333.09                   63.294                   71.058                   89.682                   92.333                   93.298                   93.526                   37.131                   40.774                   51.077                   52.988                   53.686                   53.760                   32.893                   35.966                   43.635                   44.589                   45.061                   45.178                   28.979                   30.682                   34.620                   35.070                   35.319                   35.375
22.000                   2.2500                   1.0000                   1.4000                   6000.0                   1000.0                   40.000                   349.52                   417.56                   618.86                   652.79                   672.28                   676.38                   349.84                   417.79                   618.61                   652.42                   671.86                   675.94                   349.50                   417.55                   618.90                   652.87                   672.35                   676.42                   350.14                   418.23                   619.73                   653.72                   673.26                   677.35                   344.48                   411.15                   605.76                   637.99                   656.63                   660.55                   220.54                   256.68                   351.45                   365.29                   373.64                   375.76                   73.353                   80.476                   95.764                   97.636                   98.595                   98.886                   40.632                   43.516                   49.540                   50.304                   50.627                   50.689                   35.318                   37.650                   42.078                   42.476                   42.668                   42.719                   31.105                   32.434                   34.793                   34.988                   35.088                   35.112
22.000                   2.2500                   1.0000                   1.4000                   6000.0                   1000.0                   45.000                   400.86                   472.17                   683.23                   720.22                   741.51                   745.82                   401.09                   472.35                   683.62                   720.81                   742.23                   746.57                   400.81                   472.14                   683.27                   720.24                   741.54                   745.87                   401.47                   472.80                   683.95                   720.98                   742.31                   746.64                   393.84                   463.58                   667.98                   702.86                   722.97                   727.10                   253.91                   291.76                   391.31                   405.90                   414.88                   417.16                   83.045                   89.516                   102.66                   104.16                   105.11                   105.43                   43.466                   45.584                   48.883                   49.087                   49.232                   49.289                   37.106                   38.682                   40.880                   40.988                   41.043                   41.061                   32.838                   33.775                   35.032                   35.091                   35.117                   35.126
22.000                   2.2500                   1.0000                   1.4000                   6000.0                   1000.0                   50.000                   450.18                   523.66                   740.44                   780.23                   803.09                   807.60                   450.38                   523.90                   741.84                   782.20                   805.39                   809.94                   450.13                   523.64                   740.65                   780.40                   803.29                   807.85                   450.76                   524.26                   741.22                   781.06                   804.01                   808.55                   441.39                   513.37                   724.47                   762.17                   783.78                   788.11                   287.09                   326.56                   430.53                   445.72                   455.03                   457.39                   92.472                   98.358                   110.43                   111.85                   112.79                   113.11                   45.748                   47.167                   49.049                   49.134                   49.244                   49.301                   38.378                   39.266                   40.161                   40.186                   40.208                   40.218                   34.235                   34.804                   35.394                   35.412                   35.420                   35.425
22.000                   2.2500                   1.0000                   1.4000                   6000.0                   1000.0                   55.000                   496.22                   570.49                   797.97                   842.73                   866.75                   871.29                   496.44                   570.87                   800.57                   846.10                   870.43                   875.01                   496.18                   570.51                   798.58                   843.45                   867.57                   872.16                   496.77                   571.09                   799.18                   844.01                   868.08                   872.65                   485.89                   558.94                   778.36                   821.64                   845.09                   849.59                   319.69                   360.64                   468.51                   484.26                   493.80                   496.18                   101.81                   107.47                   119.65                   121.18                   122.14                   122.46                   47.537                   48.589                   50.313                   50.490                   50.621                   50.672                   39.237                   39.798                   40.554                   40.625                   40.668                   40.682                   35.290                   35.666                   36.133                   36.166                   36.186                   36.193
22.000                   2.2500                   1.0000                   1.4000                   6000.0                   1000.0                   60.000                   539.55                   613.73                   858.31                   905.10                   928.89                   933.19                   539.82                   614.24                   861.42                   908.79                   932.76                   937.08                   539.54                   613.82                   859.30                   906.23                   930.18                   934.54                   540.10                   614.37                   859.97                   906.76                   930.53                   934.85                   527.95                   601.16                   835.85                   882.07                   905.86                   910.26                   351.50                   393.74                   505.41                   521.88                   531.82                   534.23                   111.36                   116.97                   129.51                   131.13                   132.13                   132.46                   49.205                   50.048                   51.670                   51.876                   52.007                   52.052                   40.022                   40.424                   41.191                   41.289                   41.345                   41.361                   36.222                   36.496                   36.918                   36.959                   36.984                   36.992
22.000                   2.2500                   1.0000                   1.4000                   6000.0                   1000.0                   65.000                   581.08                   654.58                   918.39                   964.63                   987.06                   990.92                   581.41                   655.21                   921.46                   967.90                   990.31                   994.16                   581.10                   654.73                   919.54                   965.87                   988.41                   992.29                   581.62                   655.26                   920.38                   966.58                   988.91                   992.77                   568.43                   641.20                   894.08                   940.71                   963.67                   967.73                   382.80                   426.21                   541.84                   559.10                   569.48                   571.90                   121.04                   126.73                   139.75                   141.46                   142.51                   142.86                   50.823                   51.566                   53.225                   53.453                   53.592                   53.638                   40.771                   41.103                   41.889                   41.996                   42.057                   42.076                   37.083                   37.304                   37.722                   37.768                   37.796                   37.805
22.000                   2.2500                   1.0000                   1.4000                   6000.0                   1000.0                   70.000                   617.37                   689.23                   960.18                   1000.5                   1018.9                   1021.8                   617.76                   689.90                   963.05                   1003.3                   1021.5                   1024.4                   617.43                   689.42                   960.93                   1001.2                   1019.5                   1022.4                   617.89                   689.89                   961.46                   1001.7                   1019.9                   1022.8                   604.29                   675.86                   939.92                   982.11                   1002.0                   1005.3                   412.34                   456.43                   573.76                   591.18                   601.59                   603.97                   131.07                   136.91                   150.25                   151.99                   153.06                   153.41                   52.540                   53.317                   55.142                   55.390                   55.545                   55.597                   41.561                   41.895                   42.670                   42.771                   42.834                   42.854                   37.868                   38.079                   38.497                   38.545                   38.574                   38.584
22.000                   2.2500                   1.0000                   1.4000                   6000.0                   1000.0                   75.000                   650.55                   720.62                   988.78                   1022.0                   1035.7                   1037.7                   650.98                   721.37                   992.74                   1025.9                   1039.2                   1041.1                   650.64                   720.86                   989.33                   1022.3                   1035.9                   1037.9                   651.05                   721.21                   988.78                   1021.7                   1035.3                   1037.2                   637.44                   707.66                   975.91                   1012.3                   1028.3                   1030.8                   440.72                   485.12                   602.11                   619.26                   629.46                   631.76                   141.27                   147.20                   160.64                   162.37                   163.44                   163.79                   54.362                   55.178                   57.077                   57.327                   57.482                   57.534                   42.405                   42.744                   43.532                   43.635                   43.699                   43.720                   38.644                   38.847                   39.252                   39.299                   39.327                   39.336