% Model:              batchmodel_COIL_N_22_COIL_kr_3_COIL_kh_3_COIL_kturn_1.1_FUNZ_freq_10000_FUNZ_I_eff_1000.mph
% Version:            COMSOL 5.6.0.280
% Date:               Feb 3 2022, 07:38
% Table:              Tabella 1 - GRIGLIA_T
% COIL_N                 COIL_kr                  COIL_kh                  COIL_kturn               FUNZ_freq                FUNZ_I_eff               Time (s)                 Temperatura (degC), Punto: (0, 0)Temperatura (degC), Punto: (15, 0)Temperatura (degC), Punto: (28.051, 0)Temperatura (degC), Punto: (29.025, 0)Temperatura (degC), Punto: (29.61, 0)Temperatura (degC), Punto: (29.805, 0)Temperatura (degC), Punto: (0, 62.5)Temperatura (degC), Punto: (15, 62.5)Temperatura (degC), Punto: (28.051, 62.5)Temperatura (degC), Punto: (29.025, 62.5)Temperatura (degC), Punto: (29.61, 62.5)Temperatura (degC), Punto: (29.805, 62.5)Temperatura (degC), Punto: (0, 125)Temperatura (degC), Punto: (15, 125)Temperatura (degC), Punto: (28.051, 125)Temperatura (degC), Punto: (29.025, 125)Temperatura (degC), Punto: (29.61, 125)Temperatura (degC), Punto: (29.805, 125)Temperatura (degC), Punto: (0, 187.5)Temperatura (degC), Punto: (15, 187.5)Temperatura (degC), Punto: (28.051, 187.5)Temperatura (degC), Punto: (29.025, 187.5)Temperatura (degC), Punto: (29.61, 187.5)Temperatura (degC), Punto: (29.805, 187.5)Temperatura (degC), Punto: (0, 250)Temperatura (degC), Punto: (15, 250)Temperatura (degC), Punto: (28.051, 250)Temperatura (degC), Punto: (29.025, 250)Temperatura (degC), Punto: (29.61, 250)Temperatura (degC), Punto: (29.805, 250)Temperatura (degC), Punto: (0, 312.5)Temperatura (degC), Punto: (15, 312.5)Temperatura (degC), Punto: (28.051, 312.5)Temperatura (degC), Punto: (29.025, 312.5)Temperatura (degC), Punto: (29.61, 312.5)Temperatura (degC), Punto: (29.805, 312.5)Temperatura (degC), Punto: (0, 375)Temperatura (degC), Punto: (15, 375)Temperatura (degC), Punto: (28.051, 375)Temperatura (degC), Punto: (29.025, 375)Temperatura (degC), Punto: (29.61, 375)Temperatura (degC), Punto: (29.805, 375)Temperatura (degC), Punto: (0, 437.5)Temperatura (degC), Punto: (15, 437.5)Temperatura (degC), Punto: (28.051, 437.5)Temperatura (degC), Punto: (29.025, 437.5)Temperatura (degC), Punto: (29.61, 437.5)Temperatura (degC), Punto: (29.805, 437.5)Temperatura (degC), Punto: (0, 468.75)Temperatura (degC), Punto: (15, 468.75)Temperatura (degC), Punto: (28.051, 468.75)Temperatura (degC), Punto: (29.025, 468.75)Temperatura (degC), Punto: (29.61, 468.75)Temperatura (degC), Punto: (29.805, 468.75)Temperatura (degC), Punto: (0, 492.19)Temperatura (degC), Punto: (15, 492.19)Temperatura (degC), Punto: (28.051, 492.19)Temperatura (degC), Punto: (29.025, 492.19)Temperatura (degC), Punto: (29.61, 492.19)Temperatura (degC), Punto: (29.805, 492.19)
22.000                   3.0000                   3.0000                   1.1000                   10000                    1000.0                   0.0000                   20.000                   20.000                   20.000                   20.000                   20.007                   20.057                   20.000                   20.000                   20.000                   20.000                   20.007                   20.057                   20.000                   20.000                   20.000                   20.000                   20.007                   20.057                   20.000                   20.000                   20.000                   20.000                   20.007                   20.057                   20.000                   20.000                   20.000                   20.000                   20.007                   20.057                   20.000                   20.000                   20.000                   20.000                   20.007                   20.057                   20.000                   20.000                   20.000                   20.000                   20.007                   20.057                   20.000                   20.000                   20.000                   20.000                   20.007                   20.057                   20.000                   20.000                   20.000                   20.000                   20.007                   20.059                   20.000                   20.000                   20.000                   20.000                   20.007                   20.056
22.000                   3.0000                   3.0000                   1.1000                   10000                    1000.0                   5.0000                   22.020                   29.166                   65.601                   69.690                   72.006                   72.709                   22.032                   29.327                   66.706                   71.001                   73.339                   74.082                   22.030                   29.326                   66.491                   70.600                   72.841                   73.535                   22.004                   29.213                   65.509                   69.387                   71.530                   72.233                   22.033                   29.355                   66.475                   70.557                   72.733                   73.373                   22.058                   29.487                   66.345                   70.135                   72.241                   72.874                   21.906                   28.751                   64.572                   68.768                   71.281                   72.061                   21.872                   28.550                   63.583                   67.894                   70.459                   71.314                   22.012                   29.130                   65.719                   69.876                   72.265                   72.970                   24.080                   32.541                   67.695                   71.828                   74.144                   74.858
22.000                   3.0000                   3.0000                   1.1000                   10000                    1000.0                   10.000                   34.003                   47.915                   88.429                   92.584                   95.154                   95.969                   34.172                   48.279                   89.065                   93.191                   95.763                   96.578                   34.149                   48.200                   88.908                   93.064                   95.634                   96.447                   34.010                   47.928                   88.398                   92.566                   95.149                   95.968                   34.165                   48.230                   88.974                   93.150                   95.752                   96.580                   34.166                   48.128                   88.516                   92.673                   95.253                   96.073                   33.621                   47.437                   88.191                   92.383                   94.975                   95.797                   33.484                   47.259                   88.191                   92.404                   95.005                   95.827                   34.273                   48.438                   90.261                   94.583                   97.268                   98.119                   38.328                   53.356                   93.791                   97.758                   100.21                   100.98
22.000                   3.0000                   3.0000                   1.1000                   10000                    1000.0                   15.000                   50.802                   66.629                   107.99                   112.20                   114.81                   115.63                   51.080                   67.036                   108.53                   112.73                   115.34                   116.17                   51.017                   66.906                   108.29                   112.50                   115.07                   115.88                   50.825                   66.674                   108.37                   112.65                   115.29                   116.12                   51.083                   67.053                   109.05                   113.36                   116.04                   116.89                   50.997                   66.865                   108.60                   112.87                   115.52                   116.36                   50.437                   66.333                   108.13                   112.41                   115.06                   115.90                   50.402                   66.376                   108.46                   112.76                   115.43                   116.27                   51.707                   67.947                   110.88                   115.31                   118.07                   118.95                   55.719                   72.479                   113.67                   117.67                   120.14                   120.92
22.000                   3.0000                   3.0000                   1.1000                   10000                    1000.0                   20.000                   68.884                   85.571                   128.15                   132.49                   135.18                   136.03                   69.218                   85.997                   128.70                   133.04                   135.73                   136.58                   69.104                   85.792                   128.20                   132.53                   135.14                   135.97                   68.914                   85.643                   128.56                   132.95                   135.63                   136.46                   69.257                   86.102                   129.40                   133.85                   136.61                   137.47                   69.135                   85.922                   129.04                   133.44                   136.17                   137.03                   68.647                   85.505                   128.71                   133.13                   135.88                   136.74                   68.795                   85.775                   129.27                   133.72                   136.48                   137.34                   70.461                   87.632                   131.88                   136.44                   139.28                   140.17                   74.251                   91.776                   133.91                   138.01                   140.53                   141.33
22.000                   3.0000                   3.0000                   1.1000                   10000                    1000.0                   25.000                   88.053                   105.30                   149.43                   153.95                   156.75                   157.62                   88.361                   105.66                   149.79                   154.29                   157.07                   157.94                   88.164                   105.35                   149.15                   153.64                   156.33                   157.18                   88.047                   105.33                   149.75                   154.29                   157.06                   157.92                   88.482                   105.90                   150.77                   155.39                   158.22                   159.11                   88.329                   105.68                   150.27                   154.83                   157.65                   158.53                   87.896                   105.31                   149.99                   154.57                   157.40                   158.29                   88.223                   105.76                   150.72                   155.32                   158.17                   159.06                   89.974                   107.65                   153.21                   157.90                   160.81                   161.72                   93.448                   111.34                   154.31                   158.49                   161.07                   161.87
22.000                   3.0000                   3.0000                   1.1000                   10000                    1000.0                   30.000                   107.46                   125.20                   170.97                   175.66                   178.56                   179.46                   107.72                   125.47                   171.09                   175.74                   178.61                   179.50                   107.43                   125.05                   170.32                   174.98                   177.76                   178.63                   107.41                   125.17                   171.14                   175.86                   178.73                   179.61                   107.93                   125.85                   172.37                   177.14                   180.07                   180.97                   107.75                   125.58                   171.67                   176.39                   179.31                   180.21                   107.37                   125.25                   171.42                   176.15                   179.09                   179.99                   107.87                   125.87                   172.31                   177.06                   180.01                   180.92                   109.65                   127.73                   174.61                   179.43                   182.42                   183.34                   112.79                   130.95                   174.75                   179.00                   181.63                   182.45
22.000                   3.0000                   3.0000                   1.1000                   10000                    1000.0                   35.000                   126.86                   145.10                   192.50                   197.36                   200.38                   201.30                   127.08                   145.29                   192.39                   197.19                   200.16                   201.07                   126.70                   144.75                   191.50                   196.32                   199.19                   200.08                   126.76                   145.00                   192.54                   197.43                   200.40                   201.31                   127.38                   145.80                   193.96                   198.90                   201.91                   202.84                   127.18                   145.49                   193.08                   197.95                   200.97                   201.89                   126.84                   145.19                   192.85                   197.74                   200.77                   201.69                   127.53                   145.99                   193.89                   198.80                   201.84                   202.77                   129.33                   147.82                   196.00                   200.96                   204.03                   204.96                   132.13                   150.57                   195.18                   199.52                   202.19                   203.02
22.000                   3.0000                   3.0000                   1.1000                   10000                    1000.0                   40.000                   146.80                   165.60                   214.72                   219.79                   222.92                   223.87                   146.98                   165.74                   214.60                   219.60                   222.69                   223.63                   146.54                   165.14                   213.71                   218.75                   221.76                   222.68                   146.62                   165.40                   214.63                   219.71                   222.80                   223.74                   147.31                   166.27                   216.12                   221.24                   224.37                   225.31                   147.08                   165.93                   215.15                   220.21                   223.33                   224.28                   146.76                   165.61                   214.88                   219.95                   223.09                   224.04                   147.58                   166.55                   216.10                   221.20                   224.36                   225.31                   149.20                   168.13                   217.75                   222.86                   226.03                   226.99                   151.57                   170.28                   215.69                   220.11                   222.84                   223.67
22.000                   3.0000                   3.0000                   1.1000                   10000                    1000.0                   45.000                   166.74                   186.11                   236.97                   242.23                   245.48                   246.46                   166.90                   186.21                   236.83                   242.02                   245.24                   246.21                   166.38                   185.54                   235.95                   241.20                   244.36                   245.31                   166.49                   185.82                   236.73                   242.01                   245.22                   246.19                   167.24                   186.75                   238.28                   243.59                   246.83                   247.80                   167.00                   186.38                   237.24                   242.48                   245.72                   246.70                   166.68                   186.05                   236.93                   242.18                   245.43                   246.41                   167.64                   187.13                   238.33                   243.61                   246.89                   247.87                   169.07                   188.45                   239.50                   244.77                   248.04                   249.02                   171.01                   189.99                   236.20                   240.71                   243.48                   244.33
22.000                   3.0000                   3.0000                   1.1000                   10000                    1000.0                   50.000                   186.74                   206.67                   259.29                   264.74                   268.11                   269.12                   186.87                   206.75                   259.14                   264.54                   267.88                   268.88                   186.29                   206.02                   258.29                   263.76                   267.06                   268.05                   186.42                   206.30                   258.92                   264.40                   267.74                   268.74                   187.24                   207.29                   260.54                   266.04                   269.39                   270.39                   186.97                   206.89                   259.41                   264.84                   268.20                   269.20                   186.66                   206.56                   259.07                   264.51                   267.87                   268.88                   187.73                   207.76                   260.62                   266.10                   269.49                   270.50                   188.94                   208.78                   261.27                   266.71                   270.08                   271.08                   190.43                   209.68                   256.70                   261.29                   264.12                   264.98
22.000                   3.0000                   3.0000                   1.1000                   10000                    1000.0                   55.000                   207.06                   227.61                   282.07                   287.73                   291.23                   292.27                   207.23                   227.74                   282.03                   287.65                   291.12                   292.15                   206.66                   227.04                   281.30                   287.01                   290.45                   291.47                   206.75                   227.25                   281.73                   287.41                   290.88                   291.90                   207.60                   228.28                   283.39                   289.10                   292.57                   293.60                   207.31                   227.84                   282.18                   287.82                   291.30                   292.33                   206.99                   227.50                   281.84                   287.49                   290.98                   292.01                   208.05                   228.69                   283.40                   289.08                   292.60                   293.64                   208.79                   229.13                   283.21                   288.83                   292.31                   293.34                   209.70                   229.25                   277.13                   281.81                   284.70                   285.57
22.000                   3.0000                   3.0000                   1.1000                   10000                    1000.0                   60.000                   227.38                   248.54                   304.86                   310.73                   314.36                   315.42                   227.59                   248.73                   304.92                   310.75                   314.36                   315.41                   227.02                   248.06                   304.31                   310.25                   313.85                   314.90                   227.08                   248.21                   304.53                   310.42                   314.01                   315.07                   227.96                   249.26                   306.23                   312.15                   315.76                   316.81                   227.64                   248.79                   304.95                   310.79                   314.40                   315.46                   227.31                   248.44                   304.61                   310.46                   314.08                   315.14                   228.38                   249.63                   306.17                   312.06                   315.71                   316.78                   228.63                   249.49                   305.14                   310.95                   314.54                   315.59                   228.96                   248.83                   297.55                   302.33                   305.27                   306.15
22.000                   3.0000                   3.0000                   1.1000                   10000                    1000.0                   65.000                   247.70                   269.48                   327.64                   333.72                   337.48                   338.57                   247.95                   269.73                   327.81                   333.86                   337.60                   338.68                   247.38                   269.08                   327.33                   333.49                   337.24                   338.32                   247.41                   269.16                   327.33                   333.43                   337.15                   338.24                   248.33                   270.25                   329.08                   335.21                   338.95                   340.02                   247.98                   269.74                   327.72                   333.77                   337.51                   338.59                   247.64                   269.38                   327.38                   333.44                   337.19                   338.27                   248.70                   270.56                   328.94                   335.05                   338.82                   339.91                   248.47                   269.85                   327.08                   333.07                   336.77                   337.84                   248.23                   268.40                   317.98                   322.84                   325.84                   326.73
22.000                   3.0000                   3.0000                   1.1000                   10000                    1000.0                   70.000                   268.02                   290.42                   350.43                   356.72                   360.61                   361.72                   268.31                   290.72                   350.70                   356.97                   360.84                   361.95                   267.74                   290.10                   350.34                   356.74                   360.64                   361.75                   267.74                   290.11                   350.13                   356.44                   360.29                   361.40                   268.69                   291.23                   351.93                   358.27                   362.13                   363.24                   268.31                   290.68                   350.49                   356.74                   360.61                   361.72                   267.97                   290.32                   350.15                   356.42                   360.29                   361.40                   269.03                   291.49                   351.71                   358.03                   361.93                   363.05                   268.31                   290.20                   349.01                   355.19                   359.00                   360.10                   267.49                   287.97                   338.40                   343.36                   346.42                   347.32
22.000                   3.0000                   3.0000                   1.1000                   10000                    1000.0                   75.000                   288.34                   311.35                   373.22                   379.72                   383.74                   384.88                   288.66                   311.71                   373.60                   380.08                   384.09                   385.23                   288.10                   311.11                   373.34                   379.97                   384.01                   385.15                   288.06                   311.06                   372.94                   379.45                   383.43                   384.57                   289.04                   312.21                   374.77                   381.32                   385.32                   386.45                   288.64                   311.63                   373.27                   379.73                   383.72                   384.86                   288.30                   311.26                   372.94                   379.41                   383.42                   384.55                   289.33                   312.41                   374.48                   381.00                   385.04                   386.18                   288.10                   310.51                   370.90                   377.26                   381.19                   382.30                   286.69                   307.48                   358.75                   363.80                   366.91                   367.82