% Model:              batchmodel_COIL_N_22_COIL_kr_3_COIL_kh_1_COIL_kturn_1.1_FUNZ_freq_2000_FUNZ_I_eff_1000.mph
% Version:            COMSOL 5.6.0.280
% Date:               Feb 3 2022, 01:24
% Table:              Tabella 1 - GRIGLIA_T
% COIL_N                 COIL_kr                  COIL_kh                  COIL_kturn               FUNZ_freq                FUNZ_I_eff               Time (s)                 Temperatura (degC), Punto: (0, 0)Temperatura (degC), Punto: (15, 0)Temperatura (degC), Punto: (25.641, 0)Temperatura (degC), Punto: (27.821, 0)Temperatura (degC), Punto: (29.128, 0)Temperatura (degC), Punto: (29.564, 0)Temperatura (degC), Punto: (0, 62.5)Temperatura (degC), Punto: (15, 62.5)Temperatura (degC), Punto: (25.641, 62.5)Temperatura (degC), Punto: (27.821, 62.5)Temperatura (degC), Punto: (29.128, 62.5)Temperatura (degC), Punto: (29.564, 62.5)Temperatura (degC), Punto: (0, 125)Temperatura (degC), Punto: (15, 125)Temperatura (degC), Punto: (25.641, 125)Temperatura (degC), Punto: (27.821, 125)Temperatura (degC), Punto: (29.128, 125)Temperatura (degC), Punto: (29.564, 125)Temperatura (degC), Punto: (0, 187.5)Temperatura (degC), Punto: (15, 187.5)Temperatura (degC), Punto: (25.641, 187.5)Temperatura (degC), Punto: (27.821, 187.5)Temperatura (degC), Punto: (29.128, 187.5)Temperatura (degC), Punto: (29.564, 187.5)Temperatura (degC), Punto: (0, 250)Temperatura (degC), Punto: (15, 250)Temperatura (degC), Punto: (25.641, 250)Temperatura (degC), Punto: (27.821, 250)Temperatura (degC), Punto: (29.128, 250)Temperatura (degC), Punto: (29.564, 250)Temperatura (degC), Punto: (0, 312.5)Temperatura (degC), Punto: (15, 312.5)Temperatura (degC), Punto: (25.641, 312.5)Temperatura (degC), Punto: (27.821, 312.5)Temperatura (degC), Punto: (29.128, 312.5)Temperatura (degC), Punto: (29.564, 312.5)Temperatura (degC), Punto: (0, 375)Temperatura (degC), Punto: (15, 375)Temperatura (degC), Punto: (25.641, 375)Temperatura (degC), Punto: (27.821, 375)Temperatura (degC), Punto: (29.128, 375)Temperatura (degC), Punto: (29.564, 375)Temperatura (degC), Punto: (0, 437.5)Temperatura (degC), Punto: (15, 437.5)Temperatura (degC), Punto: (25.641, 437.5)Temperatura (degC), Punto: (27.821, 437.5)Temperatura (degC), Punto: (29.128, 437.5)Temperatura (degC), Punto: (29.564, 437.5)Temperatura (degC), Punto: (0, 468.75)Temperatura (degC), Punto: (15, 468.75)Temperatura (degC), Punto: (25.641, 468.75)Temperatura (degC), Punto: (27.821, 468.75)Temperatura (degC), Punto: (29.128, 468.75)Temperatura (degC), Punto: (29.564, 468.75)Temperatura (degC), Punto: (0, 492.19)Temperatura (degC), Punto: (15, 492.19)Temperatura (degC), Punto: (25.641, 492.19)Temperatura (degC), Punto: (27.821, 492.19)Temperatura (degC), Punto: (29.128, 492.19)Temperatura (degC), Punto: (29.564, 492.19)
22.000                   3.0000                   1.0000                   1.1000                   2000.0                   1000.0                   0.0000                   20.000                   20.000                   20.000                   20.000                   20.015                   20.050                   20.000                   20.000                   20.000                   20.000                   20.015                   20.050                   20.000                   20.000                   20.000                   20.000                   20.015                   20.050                   20.000                   20.000                   20.000                   20.000                   20.014                   20.048                   20.000                   20.000                   20.000                   20.000                   20.005                   20.028                   20.000                   20.000                   20.000                   20.000                   20.000                   20.005                   20.000                   20.000                   20.000                   20.000                   20.000                   20.001                   20.000                   20.000                   20.000                   20.000                   20.000                   20.000                   20.000                   20.000                   20.000                   20.000                   20.000                   20.000                   20.000                   20.000                   20.000                   20.000                   20.000                   20.000
22.000                   3.0000                   1.0000                   1.1000                   2000.0                   1000.0                   5.0000                   23.479                   34.363                   76.448                   91.584                   101.82                   104.73                   23.503                   34.455                   76.691                   91.820                   102.04                   104.94                   23.426                   34.171                   75.987                   91.123                   101.30                   104.17                   23.271                   33.543                   73.376                   87.722                   97.203                   99.891                   21.900                   27.845                   50.747                   58.969                   64.552                   66.285                   20.580                   22.318                   28.509                   30.570                   31.966                   32.446                   20.281                   21.168                   24.577                   25.906                   26.275                   26.375                   20.088                   20.344                   21.100                   21.291                   21.396                   21.431                   20.060                   20.226                   20.667                   20.766                   20.809                   20.823                   20.031                   20.115                   20.338                   20.381                   20.409                   20.420
22.000                   3.0000                   1.0000                   1.1000                   2000.0                   1000.0                   10.000                   43.565                   66.249                   122.76                   140.13                   151.44                   154.51                   43.691                   66.463                   123.08                   140.47                   151.79                   154.86                   43.825                   66.962                   124.99                   142.69                   154.09                   157.17                   42.362                   64.187                   119.27                   136.41                   147.17                   150.03                   32.913                   45.288                   75.872                   85.108                   91.120                   92.913                   23.832                   27.261                   35.165                   37.411                   38.857                   39.340                   21.970                   24.135                   30.544                   32.618                   33.316                   33.411                   20.514                   20.975                   22.101                   22.490                   22.668                   22.697                   20.350                   20.659                   21.351                   21.536                   21.640                   21.674                   20.180                   20.316                   20.590                   20.664                   20.713                   20.729
22.000                   3.0000                   1.0000                   1.1000                   2000.0                   1000.0                   15.000                   72.877                   102.50                   167.61                   186.68                   198.88                   202.07                   73.248                   103.05                   168.53                   187.70                   199.95                   203.16                   74.361                   105.30                   173.81                   193.62                   206.14                   209.46                   70.712                   99.720                   164.40                   183.27                   194.78                   197.80                   49.314                   65.522                   100.57                   110.57                   116.95                   118.82                   28.786                   33.221                   42.188                   44.586                   46.096                   46.595                   24.827                   28.135                   36.946                   39.553                   40.416                   40.526                   21.223                   21.872                   23.372                   23.863                   24.079                   24.119                   20.840                   21.298                   22.271                   22.530                   22.689                   22.744                   20.445                   20.631                   21.000                   21.107                   21.179                   21.201
22.000                   3.0000                   1.0000                   1.1000                   2000.0                   1000.0                   20.000                   106.67                   140.69                   212.02                   232.54                   245.55                   248.85                   107.40                   141.72                   213.76                   234.48                   247.60                   250.93                   109.94                   146.12                   222.40                   244.07                   257.61                   261.17                   103.71                   137.59                   209.76                   230.39                   242.89                   246.12                   68.468                   87.109                   125.09                   135.70                   142.41                   144.33                   34.682                   39.779                   49.522                   52.044                   53.607                   54.120                   28.338                   32.564                   42.969                   45.829                   46.855                   47.007                   22.119                   22.948                   24.833                   25.445                   25.687                   25.732                   21.461                   22.064                   23.304                   23.630                   23.828                   23.896                   20.792                   21.028                   21.485                   21.608                   21.688                   21.712
22.000                   3.0000                   1.0000                   1.1000                   2000.0                   1000.0                   25.000                   143.45                   180.28                   256.69                   278.66                   292.47                   295.88                   144.64                   181.86                   259.23                   281.46                   295.43                   298.87                   148.79                   188.23                   270.33                   293.69                   308.32                   312.00                   139.81                   176.84                   254.54                   276.73                   290.10                   293.52                   89.831                   109.92                   150.13                   161.29                   168.30                   170.28                   41.596                   47.129                   57.488                   60.130                   61.761                   62.293                   32.440                   37.265                   48.482                   51.449                   52.536                   52.720                   23.258                   24.223                   26.316                   26.960                   27.181                   27.226                   22.289                   23.052                   24.638                   25.060                   25.301                   25.382                   21.291                   21.586                   22.151                   22.297                   22.389                   22.416
22.000                   3.0000                   1.0000                   1.1000                   2000.0                   1000.0                   30.000                   181.03                   220.24                   301.57                   325.03                   339.66                   343.17                   182.70                   222.36                   304.83                   328.61                   343.44                   346.97                   188.16                   230.16                   317.37                   342.28                   357.87                   361.65                   176.45                   215.92                   298.32                   321.90                   336.00                   339.56                   112.24                   133.51                   175.77                   187.44                   194.73                   196.76                   49.308                   55.194                   66.106                   68.869                   70.571                   71.125                   36.794                   42.040                   53.838                   56.902                   58.035                   58.232                   24.613                   25.686                   27.941                   28.614                   28.826                   28.871                   23.289                   24.193                   26.063                   26.560                   26.844                   26.937                   21.944                   22.294                   22.954                   23.122                   23.227                   23.259
22.000                   3.0000                   1.0000                   1.1000                   2000.0                   1000.0                   35.000                   219.43                   260.55                   346.68                   371.72                   387.18                   390.76                   221.58                   263.20                   350.56                   375.96                   391.65                   395.26                   227.99                   271.80                   363.31                   389.64                   406.02                   409.84                   213.55                   254.68                   340.89                   365.63                   380.29                   383.93                   135.82                   157.99                   202.13                   214.29                   221.81                   223.88                   57.963                   64.113                   75.506                   78.391                   80.171                   80.747                   41.429                   46.889                   59.030                   62.188                   63.356                   63.544                   26.224                   27.373                   29.746                   30.449                   30.671                   30.717                   24.492                   25.511                   27.582                   28.128                   28.452                   28.557                   22.783                   23.179                   23.921                   24.108                   24.227                   24.263
22.000                   3.0000                   1.0000                   1.1000                   2000.0                   1000.0                   40.000                   257.83                   300.87                   391.79                   418.41                   434.69                   438.35                   260.46                   304.03                   396.30                   423.32                   439.87                   443.55                   267.81                   313.43                   409.25                   436.99                   454.16                   458.03                   250.65                   293.44                   383.45                   409.37                   424.59                   428.30                   159.40                   182.47                   228.50                   241.13                   248.89                   251.00                   66.618                   73.032                   84.906                   87.913                   89.770                   90.369                   46.064                   51.738                   64.222                   67.473                   68.678                   68.855                   27.835                   29.061                   31.551                   32.285                   32.515                   32.564                   25.695                   26.830                   29.101                   29.695                   30.059                   30.177                   23.622                   24.065                   24.887                   25.094                   25.226                   25.267
22.000                   3.0000                   1.0000                   1.1000                   2000.0                   1000.0                   45.000                   295.93                   340.87                   436.71                   464.99                   482.11                   485.84                   298.92                   344.39                   441.56                   470.25                   487.66                   491.41                   306.81                   354.07                   454.02                   483.13                   501.02                   504.94                   287.01                   331.23                   424.55                   451.55                   467.29                   471.05                   183.16                   207.10                   255.00                   268.13                   276.13                   278.28                   75.742                   82.400                   94.728                   97.854                   99.788                   100.41                   50.852                   56.724                   69.552                   72.892                   74.130                   74.305                   29.561                   30.852                   33.456                   34.225                   34.466                   34.516                   26.975                   28.201                   30.633                   31.265                   31.657                   31.783                   24.577                   25.071                   25.982                   26.211                   26.357                   26.402
22.000                   3.0000                   1.0000                   1.1000                   2000.0                   1000.0                   50.000                   333.60                   380.43                   481.38                   511.44                   529.40                   533.21                   336.80                   384.09                   486.18                   516.60                   534.87                   538.68                   344.72                   393.39                   497.18                   527.61                   546.14                   550.10                   322.37                   367.71                   463.67                   491.63                   507.85                   511.62                   207.15                   231.92                   281.68                   295.34                   303.59                   305.79                   85.498                   92.374                   105.12                   108.36                   110.37                   111.02                   55.847                   61.895                   75.068                   78.491                   79.760                   79.942                   31.442                   32.783                   35.497                   36.306                   36.562                   36.612                   28.360                   29.645                   32.180                   32.838                   33.242                   33.370                   25.688                   26.237                   27.252                   27.504                   27.664                   27.715
22.000                   3.0000                   1.0000                   1.1000                   2000.0                   1000.0                   55.000                   371.27                   419.99                   526.05                   557.88                   576.70                   580.58                   374.68                   423.79                   530.80                   562.96                   582.09                   585.96                   382.62                   432.71                   540.35                   572.10                   591.27                   595.26                   357.73                   404.19                   502.80                   531.71                   548.40                   552.19                   231.15                   256.73                   308.36                   322.55                   331.04                   333.30                   95.254                   102.35                   115.51                   118.87                   120.95                   121.62                   60.842                   67.065                   80.584                   84.089                   85.389                   85.579                   33.323                   34.713                   37.538                   38.386                   38.658                   38.708                   29.745                   31.088                   33.727                   34.411                   34.827                   34.957                   26.799                   27.404                   28.522                   28.797                   28.972                   29.027
22.000                   3.0000                   1.0000                   1.1000                   2000.0                   1000.0                   60.000                   407.71                   458.32                   569.34                   603.13                   622.86                   626.85                   411.21                   462.10                   573.80                   607.84                   627.84                   631.80                   418.90                   470.37                   581.86                   615.25                   635.14                   639.20                   391.89                   439.70                   541.85                   572.21                   589.68                   593.52                   255.09                   281.54                   335.23                   350.10                   359.02                   361.35                   105.26                   112.50                   125.99                   129.45                   131.62                   132.31                   64.956                   70.848                   83.359                   86.561                   87.779                   87.974                   35.023                   36.356                   39.016                   39.801                   40.065                   40.115                   30.906                   32.181                   34.630                   35.255                   35.630                   35.747                   27.812                   28.407                   29.486                   29.746                   29.909                   29.961
22.000                   3.0000                   1.0000                   1.1000                   2000.0                   1000.0                   65.000                   442.39                   494.85                   610.66                   646.67                   667.40                   671.52                   445.79                   498.40                   614.48                   650.60                   671.49                   675.60                   452.82                   505.66                   621.01                   656.49                   677.22                   681.38                   424.33                   473.81                   580.79                   613.32                   631.98                   635.92                   278.97                   306.34                   362.37                   378.14                   387.75                   390.17                   115.62                   122.92                   136.59                   140.15                   142.40                   143.11                   67.807                   72.640                   82.198                   84.544                   85.518                   85.715                   36.464                   37.585                   39.684                   40.262                   40.481                   40.530                   31.746                   32.768                   34.607                   35.050                   35.311                   35.392                   28.683                   29.177                   30.012                   30.201                   30.315                   30.351
22.000                   3.0000                   1.0000                   1.1000                   2000.0                   1000.0                   70.000                   477.07                   531.39                   651.97                   690.20                   711.93                   716.20                   480.37                   534.70                   655.17                   693.36                   715.14                   719.40                   486.74                   540.94                   660.16                   697.72                   719.31                   723.56                   456.78                   507.93                   619.74                   654.44                   674.29                   678.32                   302.85                   331.14                   389.51                   406.18                   416.48                   419.00                   125.98                   133.33                   147.19                   150.85                   153.18                   153.91                   70.658                   74.431                   81.038                   82.526                   83.258                   83.455                   37.905                   38.814                   40.353                   40.723                   40.898                   40.946                   32.585                   33.356                   34.585                   34.845                   34.992                   35.037                   29.555                   29.946                   30.538                   30.656                   30.722                   30.742
22.000                   3.0000                   1.0000                   1.1000                   2000.0                   1000.0                   75.000                   510.06                   565.45                   689.85                   730.86                   753.77                   758.18                   513.23                   568.54                   692.72                   733.68                   756.57                   760.97                   518.93                   573.89                   696.66                   737.06                   759.75                   764.11                   487.76                   539.90                   654.56                   690.88                   711.71                   715.82                   326.41                   355.61                   416.15                   433.59                   444.42                   447.01                   136.42                   143.85                   157.93                   161.69                   164.09                   164.84                   73.313                   76.297                   80.931                   81.886                   82.466                   82.661                   39.229                   39.977                   41.140                   41.384                   41.533                   41.582                   33.326                   33.903                   34.708                   34.851                   34.926                   34.950                   30.336                   30.645                   31.065                   31.137                   31.173                   31.184