% Model:              batchmodel_COIL_N_22_COIL_kr_2.25_COIL_kh_2_COIL_kturn_1.1_FUNZ_freq_10000_FUNZ_I_eff_2500.mph
% Version:            COMSOL 5.6.0.280
% Date:               Feb 2 2022, 21:45
% Table:              Tabella 1 - GRIGLIA_T
% COIL_N                 COIL_kr                  COIL_kh                  COIL_kturn               FUNZ_freq                FUNZ_I_eff               Time (s)                 Temperatura (degC), Punto: (0, 0)Temperatura (degC), Punto: (15, 0)Temperatura (degC), Punto: (28.051, 0)Temperatura (degC), Punto: (29.025, 0)Temperatura (degC), Punto: (29.61, 0)Temperatura (degC), Punto: (29.805, 0)Temperatura (degC), Punto: (0, 62.5)Temperatura (degC), Punto: (15, 62.5)Temperatura (degC), Punto: (28.051, 62.5)Temperatura (degC), Punto: (29.025, 62.5)Temperatura (degC), Punto: (29.61, 62.5)Temperatura (degC), Punto: (29.805, 62.5)Temperatura (degC), Punto: (0, 125)Temperatura (degC), Punto: (15, 125)Temperatura (degC), Punto: (28.051, 125)Temperatura (degC), Punto: (29.025, 125)Temperatura (degC), Punto: (29.61, 125)Temperatura (degC), Punto: (29.805, 125)Temperatura (degC), Punto: (0, 187.5)Temperatura (degC), Punto: (15, 187.5)Temperatura (degC), Punto: (28.051, 187.5)Temperatura (degC), Punto: (29.025, 187.5)Temperatura (degC), Punto: (29.61, 187.5)Temperatura (degC), Punto: (29.805, 187.5)Temperatura (degC), Punto: (0, 250)Temperatura (degC), Punto: (15, 250)Temperatura (degC), Punto: (28.051, 250)Temperatura (degC), Punto: (29.025, 250)Temperatura (degC), Punto: (29.61, 250)Temperatura (degC), Punto: (29.805, 250)Temperatura (degC), Punto: (0, 312.5)Temperatura (degC), Punto: (15, 312.5)Temperatura (degC), Punto: (28.051, 312.5)Temperatura (degC), Punto: (29.025, 312.5)Temperatura (degC), Punto: (29.61, 312.5)Temperatura (degC), Punto: (29.805, 312.5)Temperatura (degC), Punto: (0, 375)Temperatura (degC), Punto: (15, 375)Temperatura (degC), Punto: (28.051, 375)Temperatura (degC), Punto: (29.025, 375)Temperatura (degC), Punto: (29.61, 375)Temperatura (degC), Punto: (29.805, 375)Temperatura (degC), Punto: (0, 437.5)Temperatura (degC), Punto: (15, 437.5)Temperatura (degC), Punto: (28.051, 437.5)Temperatura (degC), Punto: (29.025, 437.5)Temperatura (degC), Punto: (29.61, 437.5)Temperatura (degC), Punto: (29.805, 437.5)Temperatura (degC), Punto: (0, 468.75)Temperatura (degC), Punto: (15, 468.75)Temperatura (degC), Punto: (28.051, 468.75)Temperatura (degC), Punto: (29.025, 468.75)Temperatura (degC), Punto: (29.61, 468.75)Temperatura (degC), Punto: (29.805, 468.75)Temperatura (degC), Punto: (0, 492.19)Temperatura (degC), Punto: (15, 492.19)Temperatura (degC), Punto: (28.051, 492.19)Temperatura (degC), Punto: (29.025, 492.19)Temperatura (degC), Punto: (29.61, 492.19)Temperatura (degC), Punto: (29.805, 492.19)
22.000                   2.2500                   2.0000                   1.1000                   10000                    2500.0                   0.0000                   20.000                   20.000                   20.000                   20.000                   20.179                   20.440                   20.000                   20.000                   20.000                   20.000                   20.179                   20.440                   20.000                   20.000                   20.000                   20.000                   20.179                   20.440                   20.000                   20.000                   20.000                   20.000                   20.179                   20.440                   20.000                   20.000                   20.000                   20.000                   20.179                   20.440                   20.000                   20.000                   20.000                   20.000                   20.179                   20.440                   20.000                   20.000                   20.000                   20.000                   20.179                   20.440                   20.000                   20.000                   20.000                   20.000                   20.176                   20.435                   20.000                   20.000                   20.000                   20.000                   20.145                   20.380                   20.000                   20.000                   20.000                   20.000                   20.074                   20.241
22.000                   2.2500                   2.0000                   1.1000                   10000                    2500.0                   5.0000                   33.172                   78.809                   374.57                   424.74                   454.20                   460.61                   33.055                   78.812                   374.35                   424.43                   454.00                   460.38                   33.024                   78.665                   373.67                   423.87                   453.35                   459.71                   33.057                   78.804                   374.62                   424.82                   454.34                   460.76                   33.057                   78.815                   376.27                   427.21                   456.90                   463.27                   33.048                   78.805                   375.01                   425.23                   454.92                   461.35                   33.028                   78.705                   374.04                   424.35                   453.80                   460.14                   32.999                   78.362                   366.86                   415.28                   444.06                   450.33                   30.974                   69.248                   306.40                   344.44                   367.53                   372.80                   33.561                   59.721                   202.64                   222.56                   234.02                   237.33
22.000                   2.2500                   2.0000                   1.1000                   10000                    2500.0                   10.000                   108.03                   213.80                   668.30                   743.92                   785.27                   793.35                   107.83                   213.63                   668.47                   744.70                   786.53                   794.70                   107.75                   213.46                   666.95                   741.89                   783.28                   791.48                   107.95                   213.91                   668.22                   743.78                   784.69                   792.73                   107.98                   214.05                   669.06                   744.23                   785.60                   793.78                   107.96                   213.95                   670.09                   746.82                   788.49                   796.65                   107.83                   213.76                   670.49                   747.49                   789.52                   797.72                   105.93                   209.32                   648.10                   717.59                   756.45                   764.40                   93.211                   181.24                   544.76                   600.04                   630.64                   636.84                   87.868                   150.15                   366.58                   392.73                   408.20                   411.91
22.000                   2.2500                   2.0000                   1.1000                   10000                    2500.0                   15.000                   220.34                   354.72                   913.69                   996.64                   1031.1                   1036.7                   220.08                   354.55                   911.53                   995.09                   1030.3                   1036.1                   219.99                   354.34                   905.97                   987.89                   1022.9                   1028.6                   220.33                   354.77                   911.52                   996.18                   1031.8                   1037.6                   220.42                   355.18                   980.60                   1075.3                   1104.0                   1107.6                   220.35                   355.04                   945.61                   1039.1                   1071.7                   1076.2                   220.21                   354.98                   940.67                   1031.0                   1063.3                   1067.9                   215.16                   346.76                   901.74                   994.84                   1034.2                   1040.6                   189.52                   303.51                   725.87                   792.17                   828.50                   835.44                   169.63                   253.52                   515.96                   547.24                   565.23                   569.15
22.000                   2.2500                   2.0000                   1.1000                   10000                    2500.0                   20.000                   335.72                   476.16                   913.11                   950.57                   967.72                   970.76                   335.32                   474.51                   926.06                   971.74                   993.11                   996.87                   335.26                   474.47                   906.87                   948.40                   968.03                   971.55                   335.49                   474.62                   921.24                   964.27                   984.36                   987.93                   336.02                   480.20                   1126.9                   1160.1                   1167.4                   1167.7                   335.86                   478.68                   1074.7                   1114.5                   1124.4                   1125.2                   335.85                   479.56                   1075.5                   1114.5                   1124.1                   1124.8                   328.13                   469.40                   1119.0                   1156.2                   1164.6                   1165.0                   292.39                   413.61                   846.54                   914.21                   947.00                   952.87                   258.06                   350.35                   615.30                   645.52                   662.83                   666.51
22.000                   2.2500                   2.0000                   1.1000                   10000                    2500.0                   25.000                   433.84                   567.60                   959.75                   986.85                   998.80                   1000.9                   432.76                   563.54                   959.47                   992.44                   1007.2                   1009.7                   432.98                   564.20                   943.71                   974.07                   988.30                   990.84                   432.87                   564.05                   962.73                   994.56                   1008.4                   1010.7                   434.33                   574.29                   1129.6                   1151.3                   1155.6                   1155.5                   434.09                   572.01                   1092.4                   1118.2                   1124.1                   1124.3                   434.36                   574.26                   1107.6                   1131.2                   1136.2                   1136.3                   425.82                   565.24                   1112.8                   1136.3                   1141.3                   1141.3                   383.03                   501.87                   906.91                   953.29                   975.37                   979.33                   341.05                   432.99                   685.26                   713.71                   730.03                   733.46
22.000                   2.2500                   2.0000                   1.1000                   10000                    2500.0                   30.000                   514.34                   638.42                   1021.2                   1044.0                   1051.4                   1052.2                   512.64                   633.03                   1005.1                   1031.0                   1040.5                   1041.8                   513.12                   634.16                   992.28                   1015.5                   1024.9                   1026.3                   512.72                   633.81                   1011.8                   1037.3                   1046.2                   1047.3                   514.76                   645.05                   1118.8                   1135.0                   1138.0                   1137.7                   514.59                   642.90                   1094.6                   1112.9                   1116.6                   1116.5                   515.07                   645.99                   1112.8                   1129.3                   1132.4                   1132.2                   506.67                   637.31                   1097.4                   1115.8                   1119.5                   1119.4                   459.86                   573.78                   955.84                   991.65                   1007.5                   1010.1                   413.82                   501.75                   735.81                   762.92                   778.64                   781.90
22.000                   2.2500                   2.0000                   1.1000                   10000                    2500.0                   35.000                   579.32                   693.49                   1069.4                   1086.1                   1089.9                   1089.9                   577.37                   687.93                   1054.8                   1074.2                   1079.3                   1079.5                   577.97                   689.27                   1051.8                   1070.7                   1075.7                   1075.9                   577.39                   688.66                   1059.2                   1078.0                   1082.7                   1082.9                   579.50                   698.49                   1106.6                   1119.7                   1121.9                   1121.5                   579.47                   697.08                   1095.9                   1109.9                   1112.4                   1112.1                   580.01                   700.04                   1107.1                   1119.9                   1122.1                   1121.7                   572.26                   691.91                   1093.7                   1108.2                   1110.9                   1110.7                   523.98                   631.84                   1017.9                   1049.0                   1059.6                   1060.9                   474.96                   557.87                   777.17                   804.33                   819.64                   822.73
22.000                   2.2500                   2.0000                   1.1000                   10000                    2500.0                   40.000                   632.67                   738.61                   1093.5                   1105.2                   1107.1                   1106.7                   630.74                   733.43                   1085.0                   1098.1                   1100.6                   1100.4                   631.33                   734.69                   1085.5                   1098.4                   1100.8                   1100.6                   630.69                   733.91                   1087.1                   1099.9                   1102.3                   1102.0                   632.56                   741.85                   1105.7                   1116.2                   1117.7                   1117.2                   632.68                   741.12                   1102.0                   1112.8                   1114.4                   1114.0                   633.19                   743.80                   1107.4                   1117.6                   1119.0                   1118.5                   626.37                   736.50                   1099.2                   1110.5                   1112.2                   1111.8                   579.29                   681.23                   1071.4                   1094.1                   1099.9                   1100.1                   528.35                   605.27                   815.01                   841.13                   855.46                   858.31
22.000                   2.2500                   2.0000                   1.1000                   10000                    2500.0                   45.000                   675.98                   781.29                   1107.8                   1116.3                   1117.2                   1116.6                   674.27                   775.73                   1103.3                   1112.4                   1113.5                   1113.0                   674.79                   777.13                   1104.2                   1113.2                   1114.2                   1113.7                   674.15                   775.94                   1104.1                   1113.1                   1114.2                   1113.7                   675.68                   782.70                   1111.2                   1119.4                   1120.2                   1119.7                   675.89                   782.39                   1110.3                   1118.5                   1119.3                   1118.8                   676.31                   784.90                   1112.7                   1120.7                   1121.4                   1120.8                   670.56                   777.51                   1108.0                   1116.5                   1117.5                   1116.9                   626.40                   723.19                   1099.0                   1114.6                   1117.7                   1117.5                   575.03                   645.63                   848.12                   872.27                   885.39                   887.97
22.000                   2.2500                   2.0000                   1.1000                   10000                    2500.0                   50.000                   709.54                   824.95                   1118.7                   1124.9                   1125.1                   1124.4                   708.11                   820.10                   1116.1                   1122.7                   1123.0                   1122.3                   708.50                   821.45                   1116.8                   1123.3                   1123.6                   1122.9                   707.96                   820.06                   1116.4                   1122.9                   1123.2                   1122.6                   709.08                   824.97                   1119.3                   1125.5                   1125.7                   1125.1                   709.32                   825.12                   1119.1                   1125.4                   1125.6                   1124.9                   709.62                   826.93                   1120.3                   1126.4                   1126.6                   1125.9                   705.15                   819.83                   1117.2                   1123.7                   1124.0                   1123.3                   665.92                   760.89                   1111.8                   1122.8                   1124.4                   1124.0                   615.21                   679.90                   876.40                   898.29                   910.06                   912.35
22.000                   2.2500                   2.0000                   1.1000                   10000                    2500.0                   55.000                   735.99                   866.18                   1127.9                   1132.8                   1132.5                   1131.8                   734.47                   862.35                   1126.1                   1131.2                   1131.0                   1130.3                   734.89                   863.41                   1126.6                   1131.7                   1131.4                   1130.7                   734.26                   862.18                   1126.2                   1131.3                   1131.1                   1130.3                   735.34                   865.68                   1128.0                   1132.9                   1132.7                   1131.9                   735.69                   866.04                   1128.1                   1133.0                   1132.7                   1131.9                   735.90                   867.21                   1128.8                   1133.6                   1133.3                   1132.6                   730.84                   860.23                   1126.0                   1131.1                   1130.9                   1130.2                   693.09                   798.08                   1117.4                   1126.2                   1127.1                   1126.5                   645.38                   705.64                   899.10                   918.50                   928.87                   930.87
22.000                   2.2500                   2.0000                   1.1000                   10000                    2500.0                   60.000                   762.12                   907.30                   1137.1                   1140.6                   1139.9                   1139.1                   760.51                   904.51                   1136.0                   1139.6                   1138.9                   1138.1                   760.95                   905.27                   1136.3                   1139.9                   1139.2                   1138.4                   760.23                   904.21                   1135.9                   1139.6                   1138.9                   1138.0                   761.29                   906.32                   1136.8                   1140.4                   1139.7                   1138.8                   761.75                   906.89                   1137.0                   1140.5                   1139.8                   1139.0                   761.86                   907.40                   1137.3                   1140.9                   1140.1                   1139.3                   756.13                   900.55                   1134.8                   1138.5                   1137.8                   1137.0                   719.71                   835.25                   1122.7                   1129.3                   1129.5                   1128.8                   675.11                   731.00                   921.54                   938.46                   947.42                   949.13
22.000                   2.2500                   2.0000                   1.1000                   10000                    2500.0                   65.000                   804.75                   944.51                   1147.0                   1149.5                   1148.4                   1147.5                   803.21                   942.40                   1146.2                   1148.8                   1147.7                   1146.8                   803.60                   942.95                   1146.4                   1149.0                   1147.9                   1147.0                   802.91                   942.11                   1146.1                   1148.7                   1147.6                   1146.7                   803.80                   943.47                   1146.6                   1149.2                   1148.1                   1147.2                   804.41                   944.08                   1146.8                   1149.4                   1148.3                   1147.4                   804.28                   944.22                   1147.0                   1149.5                   1148.4                   1147.5                   796.54                   937.01                   1144.0                   1146.8                   1145.8                   1144.9                   745.65                   870.59                   1127.7                   1132.8                   1132.5                   1131.8                   696.97                   755.32                   941.41                   955.97                   963.56                   964.97
22.000                   2.2500                   2.0000                   1.1000                   10000                    2500.0                   70.000                   849.96                   981.11                   1156.9                   1158.6                   1157.2                   1156.2                   848.51                   979.63                   1156.4                   1158.0                   1156.6                   1155.7                   848.84                   979.98                   1156.5                   1158.2                   1156.8                   1155.8                   848.19                   979.36                   1156.2                   1157.9                   1156.5                   1155.6                   848.89                   980.08                   1156.5                   1158.2                   1156.8                   1155.9                   849.67                   980.70                   1156.7                   1158.4                   1157.0                   1156.1                   849.28                   980.51                   1156.7                   1158.4                   1157.0                   1156.1                   839.31                   972.87                   1153.3                   1155.2                   1153.8                   1152.9                   771.49                   905.66                   1132.5                   1136.3                   1135.7                   1134.9                   717.60                   779.49                   960.87                   973.10                   979.32                   980.44
22.000                   2.2500                   2.0000                   1.1000                   10000                    2500.0                   75.000                   896.50                   1013.7                   1168.4                   1169.3                   1167.7                   1166.7                   895.26                   1012.6                   1167.9                   1168.9                   1167.3                   1166.3                   895.51                   1012.8                   1168.0                   1169.0                   1167.4                   1166.3                   894.99                   1012.4                   1167.8                   1168.8                   1167.2                   1166.2                   895.48                   1012.8                   1168.0                   1169.0                   1167.4                   1166.3                   896.27                   1013.3                   1168.2                   1169.2                   1167.5                   1166.5                   895.72                   1013.0                   1168.1                   1169.1                   1167.5                   1166.4                   884.46                   1004.6                   1163.8                   1164.9                   1163.3                   1162.3                   807.46                   937.35                   1138.0                   1140.8                   1139.9                   1139.0                   736.16                   807.76                   982.07                   992.59                   997.50                   998.28