% Model:              batchmodel_COIL_N_22_COIL_kr_3_COIL_kh_1_COIL_kturn_1.7_FUNZ_freq_2000_FUNZ_I_eff_4000.mph
% Version:            COMSOL 5.6.0.280
% Date:               Feb 3 2022, 04:05
% Table:              Tabella 1 - GRIGLIA_T
% COIL_N                 COIL_kr                  COIL_kh                  COIL_kturn               FUNZ_freq                FUNZ_I_eff               Time (s)                 Temperatura (degC), Punto: (0, 0)Temperatura (degC), Punto: (15, 0)Temperatura (degC), Punto: (25.641, 0)Temperatura (degC), Punto: (27.821, 0)Temperatura (degC), Punto: (29.128, 0)Temperatura (degC), Punto: (29.564, 0)Temperatura (degC), Punto: (0, 62.5)Temperatura (degC), Punto: (15, 62.5)Temperatura (degC), Punto: (25.641, 62.5)Temperatura (degC), Punto: (27.821, 62.5)Temperatura (degC), Punto: (29.128, 62.5)Temperatura (degC), Punto: (29.564, 62.5)Temperatura (degC), Punto: (0, 125)Temperatura (degC), Punto: (15, 125)Temperatura (degC), Punto: (25.641, 125)Temperatura (degC), Punto: (27.821, 125)Temperatura (degC), Punto: (29.128, 125)Temperatura (degC), Punto: (29.564, 125)Temperatura (degC), Punto: (0, 187.5)Temperatura (degC), Punto: (15, 187.5)Temperatura (degC), Punto: (25.641, 187.5)Temperatura (degC), Punto: (27.821, 187.5)Temperatura (degC), Punto: (29.128, 187.5)Temperatura (degC), Punto: (29.564, 187.5)Temperatura (degC), Punto: (0, 250)Temperatura (degC), Punto: (15, 250)Temperatura (degC), Punto: (25.641, 250)Temperatura (degC), Punto: (27.821, 250)Temperatura (degC), Punto: (29.128, 250)Temperatura (degC), Punto: (29.564, 250)Temperatura (degC), Punto: (0, 312.5)Temperatura (degC), Punto: (15, 312.5)Temperatura (degC), Punto: (25.641, 312.5)Temperatura (degC), Punto: (27.821, 312.5)Temperatura (degC), Punto: (29.128, 312.5)Temperatura (degC), Punto: (29.564, 312.5)Temperatura (degC), Punto: (0, 375)Temperatura (degC), Punto: (15, 375)Temperatura (degC), Punto: (25.641, 375)Temperatura (degC), Punto: (27.821, 375)Temperatura (degC), Punto: (29.128, 375)Temperatura (degC), Punto: (29.564, 375)Temperatura (degC), Punto: (0, 437.5)Temperatura (degC), Punto: (15, 437.5)Temperatura (degC), Punto: (25.641, 437.5)Temperatura (degC), Punto: (27.821, 437.5)Temperatura (degC), Punto: (29.128, 437.5)Temperatura (degC), Punto: (29.564, 437.5)Temperatura (degC), Punto: (0, 468.75)Temperatura (degC), Punto: (15, 468.75)Temperatura (degC), Punto: (25.641, 468.75)Temperatura (degC), Punto: (27.821, 468.75)Temperatura (degC), Punto: (29.128, 468.75)Temperatura (degC), Punto: (29.564, 468.75)Temperatura (degC), Punto: (0, 492.19)Temperatura (degC), Punto: (15, 492.19)Temperatura (degC), Punto: (25.641, 492.19)Temperatura (degC), Punto: (27.821, 492.19)Temperatura (degC), Punto: (29.128, 492.19)Temperatura (degC), Punto: (29.564, 492.19)
22.000                   3.0000                   1.0000                   1.7000                   2000.0                   4000.0                   0.0000                   20.000                   20.000                   20.000                   20.001                   20.122                   20.220                   20.000                   20.000                   20.000                   20.001                   20.122                   20.220                   20.000                   20.000                   20.000                   20.001                   20.122                   20.220                   20.000                   20.000                   20.000                   20.001                   20.122                   20.220                   20.000                   20.000                   20.000                   20.001                   20.121                   20.220                   20.000                   20.000                   20.000                   20.001                   20.116                   20.213                   20.000                   20.000                   20.000                   20.000                   20.064                   20.137                   20.000                   20.000                   20.000                   20.000                   20.008                   20.036                   20.000                   20.000                   20.000                   20.000                   20.001                   20.016                   20.000                   20.000                   20.000                   20.000                   20.000                   20.004
22.000                   3.0000                   1.0000                   1.7000                   2000.0                   4000.0                   5.0000                   31.568                   86.773                   335.16                   438.50                   499.73                   512.30                   31.654                   87.425                   338.22                   446.20                   506.31                   518.27                   31.687                   87.529                   338.76                   448.73                   509.60                   521.58                   31.728                   87.591                   337.49                   446.46                   507.99                   520.19                   31.642                   87.346                   337.15                   445.65                   506.55                   518.63                   30.933                   83.434                   319.36                   422.38                   480.14                   491.60                   25.933                   55.327                   190.63                   244.74                   279.57                   287.48                   21.106                   26.945                   58.321                   69.304                   77.020                   79.357                   20.086                   21.573                   38.376                   42.022                   44.816                   45.863                   19.133                   18.676                   22.719                   24.266                   25.435                   25.867
22.000                   3.0000                   1.0000                   1.7000                   2000.0                   4000.0                   10.000                   115.95                   245.13                   640.74                   790.63                   879.19                   895.55                   116.45                   246.08                   642.56                   801.97                   890.58                   906.32                   116.64                   246.39                   642.40                   803.71                   892.05                   907.64                   116.69                   246.38                   643.26                   799.22                   887.67                   903.65                   116.30                   245.63                   641.34                   798.15                   886.50                   902.35                   111.38                   234.99                   607.46                   751.80                   827.19                   841.57                   75.566                   154.98                   376.69                   458.75                   505.01                   514.19                   32.759                   52.604                   103.02                   118.23                   128.34                   131.16                   24.408                   33.520                   57.746                   63.456                   67.408                   68.694                   20.867                   25.006                   34.597                   37.109                   38.723                   39.263
22.000                   3.0000                   1.0000                   1.7000                   2000.0                   4000.0                   15.000                   247.49                   405.41                   880.11                   1052.6                   1103.7                   1109.3                   248.16                   407.27                   912.62                   1086.1                   1132.1                   1136.7                   248.43                   408.01                   926.30                   1098.9                   1143.1                   1147.5                   248.44                   407.37                   903.34                   1076.3                   1123.5                   1128.4                   247.75                   406.99                   923.96                   1097.6                   1142.3                   1146.8                   237.89                   389.52                   846.57                   1034.8                   1097.3                   1105.0                   165.80                   270.55                   533.43                   620.50                   666.21                   674.99                   59.023                   87.137                   145.65                   162.07                   172.44                   175.23                   36.103                   48.593                   73.794                   80.288                   84.465                   85.761                   27.459                   33.542                   44.456                   47.125                   48.746                   49.272
22.000                   3.0000                   1.0000                   1.7000                   2000.0                   4000.0                   20.000                   376.23                   540.48                   1037.6                   1128.1                   1147.1                   1148.0                   377.42                   545.53                   1070.0                   1151.7                   1168.1                   1168.5                   377.91                   547.52                   1081.0                   1160.0                   1175.6                   1175.9                   377.54                   544.49                   1060.9                   1144.9                   1162.0                   1162.5                   377.12                   546.54                   1077.6                   1157.3                   1173.1                   1173.5                   362.97                   526.40                   1089.0                   1181.3                   1200.5                   1201.3                   264.16                   375.30                   630.95                   712.02                   754.09                   762.06                   93.317                   124.12                   184.93                   201.71                   212.31                   215.11                   51.425                   64.839                   91.907                   98.058                   102.04                   103.31                   36.531                   43.003                   53.941                   56.553                   58.149                   58.669
22.000                   3.0000                   1.0000                   1.7000                   2000.0                   4000.0                   25.000                   486.94                   648.77                   1112.7                   1159.9                   1167.3                   1166.6                   488.95                   655.78                   1130.6                   1173.6                   1179.8                   1178.8                   489.72                   658.46                   1137.3                   1178.7                   1184.5                   1183.5                   488.74                   654.00                   1125.7                   1169.7                   1176.3                   1175.4                   489.03                   657.37                   1133.8                   1175.7                   1181.6                   1180.6                   473.51                   644.74                   1169.6                   1214.5                   1220.6                   1219.5                   352.94                   461.23                   699.95                   777.84                   819.96                   827.68                   129.58                   161.38                   224.04                   241.43                   252.40                   255.24                   68.226                   81.873                   107.45                   114.41                   118.82                   120.16                   46.816                   53.376                   64.421                   67.067                   68.685                   69.211
22.000                   3.0000                   1.0000                   1.7000                   2000.0                   4000.0                   30.000                   579.95                   736.71                   1148.4                   1174.9                   1177.1                   1175.6                   582.56                   744.56                   1157.5                   1182.2                   1183.8                   1182.2                   583.52                   747.50                   1161.1                   1185.1                   1186.5                   1184.9                   582.07                   742.41                   1155.0                   1180.2                   1181.9                   1180.4                   582.96                   746.12                   1158.6                   1182.9                   1184.4                   1182.8                   569.33                   743.80                   1186.8                   1211.1                   1212.3                   1210.5                   429.11                   531.06                   756.57                   838.17                   879.25                   886.34                   166.05                   198.43                   262.96                   281.07                   292.45                   295.34                   85.971                   99.649                   125.69                   132.77                   137.31                   138.68                   58.094                   64.718                   75.960                   78.670                   80.329                   80.867
22.000                   3.0000                   1.0000                   1.7000                   2000.0                   4000.0                   35.000                   655.32                   823.98                   1168.9                   1184.3                   1183.6                   1181.7                   658.01                   833.43                   1173.6                   1188.1                   1187.2                   1185.2                   658.97                   836.95                   1175.5                   1189.7                   1188.6                   1186.7                   657.42                   830.90                   1172.3                   1187.0                   1186.2                   1184.2                   658.51                   834.97                   1173.9                   1188.3                   1187.3                   1185.3                   649.20                   841.09                   1191.0                   1204.7                   1203.4                   1201.3                   493.31                   588.78                   809.41                   889.58                   927.28                   933.48                   201.84                   234.76                   301.13                   319.85                   331.56                   334.47                   104.42                   118.33                   145.26                   152.59                   157.29                   158.69                   70.312                   77.048                   88.545                   91.327                   93.032                   93.583
22.000                   3.0000                   1.0000                   1.7000                   2000.0                   4000.0                   40.000                   712.14                   915.77                   1184.4                   1193.1                   1190.7                   1188.6                   714.62                   923.95                   1186.6                   1195.0                   1192.5                   1190.3                   715.51                   926.94                   1187.6                   1195.8                   1193.2                   1191.0                   714.03                   921.83                   1186.0                   1194.5                   1192.0                   1189.8                   715.11                   924.98                   1186.6                   1194.9                   1192.4                   1190.2                   709.90                   934.05                   1195.3                   1203.0                   1200.2                   1198.0                   548.84                   638.00                   856.90                   930.11                   963.03                   968.21                   236.53                   270.04                   338.00                   357.25                   369.23                   372.15                   123.50                   137.78                   165.61                   173.20                   178.05                   179.48                   83.459                   90.330                   102.09                   104.94                   106.68                   107.25
22.000                   3.0000                   1.0000                   1.7000                   2000.0                   4000.0                   45.000                   762.15                   1000.3                   1198.3                   1203.2                   1199.8                   1197.5                   764.94                   1005.8                   1199.4                   1204.1                   1200.7                   1198.3                   765.93                   1007.9                   1199.9                   1204.5                   1201.0                   1198.7                   764.27                   1004.4                   1199.1                   1203.9                   1200.5                   1198.1                   765.44                   1006.3                   1199.2                   1203.9                   1200.5                   1198.1                   762.88                   1013.1                   1202.5                   1206.8                   1203.1                   1200.7                   597.19                   681.08                   902.07                   966.16                   993.58                   997.65                   270.01                   304.04                   373.32                   392.99                   405.16                   408.07                   143.15                   157.82                   186.46                   194.28                   199.27                   200.73                   97.476                   104.49                   116.49                   119.41                   121.19                   121.77
22.000                   3.0000                   1.0000                   1.7000                   2000.0                   4000.0                   50.000                   828.01                   1070.1                   1212.8                   1215.6                   1211.6                   1209.1                   832.29                   1073.3                   1213.4                   1216.1                   1212.1                   1209.6                   833.75                   1074.5                   1213.7                   1216.3                   1212.3                   1209.8                   831.29                   1072.6                   1213.3                   1216.0                   1212.0                   1209.5                   832.89                   1073.4                   1213.1                   1215.8                   1211.8                   1209.3                   831.18                   1075.5                   1212.7                   1215.0                   1210.9                   1208.4                   638.97                   719.93                   952.32                   1007.5                   1028.7                   1031.4                   302.19                   336.64                   406.94                   426.88                   439.11                   441.99                   163.23                   178.27                   207.62                   215.64                   220.76                   222.24                   112.27                   119.42                   131.68                   134.66                   136.48                   137.07
22.000                   3.0000                   1.0000                   1.7000                   2000.0                   4000.0                   55.000                   924.54                   1123.7                   1230.5                   1231.9                   1227.4                   1224.9                   928.85                   1125.5                   1230.9                   1232.3                   1227.8                   1225.2                   930.25                   1126.1                   1231.1                   1232.4                   1227.9                   1225.4                   927.89                   1125.1                   1230.9                   1232.2                   1227.7                   1225.2                   929.29                   1125.4                   1230.6                   1231.9                   1227.4                   1224.9                   926.95                   1123.8                   1226.9                   1228.0                   1223.4                   1220.9                   675.39                   759.03                   1013.7                   1059.2                   1072.1                   1072.9                   332.98                   367.76                   438.72                   458.81                   471.07                   473.91                   183.55                   198.88                   228.88                   237.11                   242.35                   243.85                   127.74                   135.03                   147.53                   150.57                   152.43                   153.02
22.000                   3.0000                   1.0000                   1.7000                   2000.0                   4000.0                   60.000                   1022.1                   1168.8                   1252.6                   1252.9                   1248.0                   1245.3                   1025.4                   1169.8                   1253.0                   1253.3                   1248.3                   1245.6                   1026.4                   1170.2                   1253.2                   1253.4                   1248.4                   1245.7                   1024.7                   1169.6                   1253.0                   1253.2                   1248.3                   1245.6                   1025.5                   1169.6                   1252.6                   1252.9                   1247.9                   1245.2                   1021.4                   1164.6                   1245.7                   1245.7                   1240.8                   1238.1                   706.62                   806.39                   1069.4                   1102.7                   1109.2                   1108.7                   362.34                   397.32                   468.64                   488.84                   501.10                   503.90                   203.91                   219.51                   250.11                   258.52                   263.87                   265.39                   143.78                   151.20                   163.92                   167.00                   168.89                   169.49
22.000                   3.0000                   1.0000                   1.7000                   2000.0                   4000.0                   65.000                   1107.2                   1209.0                   1279.2                   1278.4                   1272.9                   1270.1                   1109.1                   1209.8                   1279.6                   1278.8                   1273.3                   1270.4                   1109.6                   1210.0                   1279.7                   1278.9                   1273.4                   1270.5                   1108.7                   1209.7                   1279.5                   1278.7                   1273.2                   1270.4                   1109.0                   1209.4                   1279.1                   1278.2                   1272.7                   1269.9                   1102.5                   1201.3                   1268.9                   1267.9                   1262.4                   1259.6                   734.67                   862.18                   1113.3                   1134.9                   1137.2                   1136.0                   390.24                   425.28                   496.69                   516.95                   529.19                   531.95                   224.22                   240.05                   271.18                   279.73                   285.19                   286.71                   160.30                   167.84                   180.73                   183.85                   185.76                   186.36
22.000                   3.0000                   1.0000                   1.7000                   2000.0                   4000.0                   70.000                   1169.9                   1247.6                   1309.0                   1307.1                   1301.0                   1298.0                   1170.9                   1248.1                   1309.4                   1307.5                   1301.4                   1298.3                   1171.2                   1248.2                   1309.5                   1307.5                   1301.5                   1298.4                   1170.8                   1248.0                   1309.3                   1307.4                   1301.3                   1298.3                   1170.7                   1247.6                   1308.7                   1306.8                   1300.7                   1297.7                   1161.6                   1236.7                   1295.4                   1293.4                   1287.4                   1284.4                   764.59                   923.06                   1142.6                   1156.7                   1156.5                   1154.8                   416.66                   451.58                   522.90                   543.16                   555.35                   558.06                   244.37                   260.40                   291.93                   300.61                   306.14                   307.67                   177.18                   184.80                   197.82                   200.96                   202.89                   203.49
22.000                   3.0000                   1.0000                   1.7000                   2000.0                   4000.0                   75.000                   1218.8                   1284.4                   1338.9                   1335.9                   1329.2                   1326.0                   1219.4                   1284.8                   1339.3                   1336.2                   1329.5                   1326.3                   1219.5                   1284.9                   1339.3                   1336.3                   1329.6                   1326.3                   1219.3                   1284.8                   1339.2                   1336.2                   1329.5                   1326.2                   1218.9                   1284.2                   1338.5                   1335.5                   1328.8                   1325.5                   1207.4                   1270.4                   1322.4                   1319.4                   1312.8                   1309.6                   809.33                   982.10                   1163.6                   1172.6                   1170.8                   1168.9                   441.57                   476.29                   547.26                   567.42                   579.51                   582.17                   264.26                   280.45                   312.28                   321.04                   326.62                   328.14                   194.27                   201.94                   215.03                   218.19                   220.12                   220.72