% Model:              batchmodel_COIL_N_22_COIL_kr_3_COIL_kh_3_COIL_kturn_1.4_FUNZ_freq_6000_FUNZ_I_eff_1000.mph
% Version:            COMSOL 5.6.0.280
% Date:               Feb 3 2022, 08:05
% Table:              Tabella 1 - GRIGLIA_T
% COIL_N                 COIL_kr                  COIL_kh                  COIL_kturn               FUNZ_freq                FUNZ_I_eff               Time (s)                 Temperatura (degC), Punto: (0, 0)Temperatura (degC), Punto: (15, 0)Temperatura (degC), Punto: (27.483, 0)Temperatura (degC), Punto: (28.742, 0)Temperatura (degC), Punto: (29.497, 0)Temperatura (degC), Punto: (29.748, 0)Temperatura (degC), Punto: (0, 62.5)Temperatura (degC), Punto: (15, 62.5)Temperatura (degC), Punto: (27.483, 62.5)Temperatura (degC), Punto: (28.742, 62.5)Temperatura (degC), Punto: (29.497, 62.5)Temperatura (degC), Punto: (29.748, 62.5)Temperatura (degC), Punto: (0, 125)Temperatura (degC), Punto: (15, 125)Temperatura (degC), Punto: (27.483, 125)Temperatura (degC), Punto: (28.742, 125)Temperatura (degC), Punto: (29.497, 125)Temperatura (degC), Punto: (29.748, 125)Temperatura (degC), Punto: (0, 187.5)Temperatura (degC), Punto: (15, 187.5)Temperatura (degC), Punto: (27.483, 187.5)Temperatura (degC), Punto: (28.742, 187.5)Temperatura (degC), Punto: (29.497, 187.5)Temperatura (degC), Punto: (29.748, 187.5)Temperatura (degC), Punto: (0, 250)Temperatura (degC), Punto: (15, 250)Temperatura (degC), Punto: (27.483, 250)Temperatura (degC), Punto: (28.742, 250)Temperatura (degC), Punto: (29.497, 250)Temperatura (degC), Punto: (29.748, 250)Temperatura (degC), Punto: (0, 312.5)Temperatura (degC), Punto: (15, 312.5)Temperatura (degC), Punto: (27.483, 312.5)Temperatura (degC), Punto: (28.742, 312.5)Temperatura (degC), Punto: (29.497, 312.5)Temperatura (degC), Punto: (29.748, 312.5)Temperatura (degC), Punto: (0, 375)Temperatura (degC), Punto: (15, 375)Temperatura (degC), Punto: (27.483, 375)Temperatura (degC), Punto: (28.742, 375)Temperatura (degC), Punto: (29.497, 375)Temperatura (degC), Punto: (29.748, 375)Temperatura (degC), Punto: (0, 437.5)Temperatura (degC), Punto: (15, 437.5)Temperatura (degC), Punto: (27.483, 437.5)Temperatura (degC), Punto: (28.742, 437.5)Temperatura (degC), Punto: (29.497, 437.5)Temperatura (degC), Punto: (29.748, 437.5)Temperatura (degC), Punto: (0, 468.75)Temperatura (degC), Punto: (15, 468.75)Temperatura (degC), Punto: (27.483, 468.75)Temperatura (degC), Punto: (28.742, 468.75)Temperatura (degC), Punto: (29.497, 468.75)Temperatura (degC), Punto: (29.748, 468.75)Temperatura (degC), Punto: (0, 492.19)Temperatura (degC), Punto: (15, 492.19)Temperatura (degC), Punto: (27.483, 492.19)Temperatura (degC), Punto: (28.742, 492.19)Temperatura (degC), Punto: (29.497, 492.19)Temperatura (degC), Punto: (29.748, 492.19)
22.000                   3.0000                   3.0000                   1.4000                   6000.0                   1000.0                   0.0000                   20.000                   20.000                   20.000                   20.000                   20.001                   20.021                   20.000                   20.000                   20.000                   20.000                   20.001                   20.021                   20.000                   20.000                   20.000                   20.000                   20.001                   20.021                   20.000                   20.000                   20.000                   20.000                   20.001                   20.021                   20.000                   20.000                   20.000                   20.000                   20.001                   20.021                   20.000                   20.000                   20.000                   20.000                   20.001                   20.021                   20.000                   20.000                   20.000                   20.000                   20.001                   20.021                   20.000                   20.000                   20.000                   20.000                   20.001                   20.021                   20.000                   20.000                   20.000                   20.000                   20.001                   20.021                   20.000                   20.000                   20.000                   20.000                   20.001                   20.017
22.000                   3.0000                   3.0000                   1.4000                   6000.0                   1000.0                   5.0000                   21.073                   24.050                   38.904                   41.559                   43.276                   43.845                   21.082                   24.103                   39.098                   41.706                   43.419                   43.997                   21.079                   24.089                   39.182                   41.847                   43.575                   44.142                   21.085                   24.111                   39.134                   41.777                   43.481                   44.050                   21.073                   24.054                   38.868                   41.485                   43.184                   43.750                   21.085                   24.115                   39.106                   41.728                   43.413                   43.972                   21.066                   24.034                   38.910                   41.554                   43.283                   43.864                   21.071                   24.058                   39.143                   41.876                   43.664                   44.240                   21.053                   23.946                   38.477                   41.035                   42.717                   43.278                   21.847                   24.796                   36.978                   39.027                   40.371                   40.830
22.000                   3.0000                   3.0000                   1.4000                   6000.0                   1000.0                   10.000                   26.277                   32.310                   50.158                   52.801                   54.432                   54.964                   26.319                   32.402                   50.192                   52.742                   54.370                   54.917                   26.328                   32.422                   50.230                   52.751                   54.354                   54.905                   26.329                   32.418                   50.347                   52.967                   54.603                   55.149                   26.314                   32.397                   50.470                   53.142                   54.807                   55.356                   26.331                   32.415                   50.244                   52.830                   54.476                   55.034                   26.290                   32.342                   50.211                   52.831                   54.491                   55.031                   26.293                   32.363                   50.309                   52.967                   54.657                   55.183                   26.202                   32.082                   49.516                   52.045                   53.652                   54.192                   27.398                   33.428                   49.167                   51.359                   52.725                   53.179
22.000                   3.0000                   3.0000                   1.4000                   6000.0                   1000.0                   15.000                   34.021                   41.567                   61.404                   64.303                   66.053                   66.589                   34.129                   41.765                   61.553                   64.252                   65.932                   66.483                   34.173                   41.842                   61.843                   64.541                   66.198                   66.759                   34.141                   41.797                   61.972                   64.806                   66.499                   67.052                   34.187                   41.890                   62.223                   65.133                   66.900                   67.464                   34.162                   41.798                   61.664                   64.486                   66.229                   66.796                   34.130                   41.724                   61.448                   64.235                   65.969                   66.527                   34.061                   41.661                   62.014                   65.165                   67.147                   67.646                   34.035                   41.402                   60.602                   63.270                   64.925                   65.457                   37.416                   46.187                   65.084                   67.470                   68.873                   69.328
22.000                   3.0000                   3.0000                   1.4000                   6000.0                   1000.0                   20.000                   43.100                   51.423                   72.328                   75.303                   77.134                   77.702                   43.361                   51.855                   72.969                   75.781                   77.511                   78.071                   43.531                   52.115                   73.769                   76.666                   78.415                   79.003                   43.426                   51.984                   73.738                   76.761                   78.523                   79.087                   43.601                   52.245                   74.118                   77.196                   79.048                   79.625                   43.382                   51.834                   72.869                   75.798                   77.596                   78.174                   43.487                   51.943                   72.928                   75.831                   77.633                   78.207                   43.276                   51.713                   73.419                   76.728                   78.777                   79.228                   43.664                   51.824                   72.201                   75.005                   76.737                   77.291                   50.224                   60.756                   81.714                   84.201                   85.609                   86.060
22.000                   3.0000                   3.0000                   1.4000                   6000.0                   1000.0                   25.000                   52.658                   61.515                   83.189                   86.216                   88.129                   88.733                   53.124                   62.250                   84.446                   87.349                   89.119                   89.686                   53.467                   62.749                   85.839                   88.945                   90.801                   91.419                   53.267                   62.485                   85.406                   88.568                   90.382                   90.953                   53.604                   62.967                   86.115                   89.333                   91.243                   91.833                   53.094                   62.094                   83.918                   86.907                   88.737                   89.325                   53.422                   62.518                   84.569                   87.567                   89.410                   89.980                   53.041                   62.075                   84.573                   87.848                   89.831                   90.235                   54.017                   62.751                   84.156                   87.114                   88.948                   89.535                   63.785                   75.395                   97.716                   100.27                   101.69                   102.14
22.000                   3.0000                   3.0000                   1.4000                   6000.0                   1000.0                   30.000                   62.678                   71.707                   93.448                   96.423                   98.294                   98.893                   63.277                   72.533                   94.702                   97.622                   99.418                   99.995                   63.757                   73.151                   95.909                   98.954                   100.80                   101.41                   63.499                   72.830                   95.425                   98.483                   100.30                   100.88                   63.909                   73.366                   96.137                   99.226                   101.09                   101.68                   63.236                   72.387                   94.285                   97.246                   99.073                   99.661                   63.773                   73.041                   95.188                   98.168                   100.01                   100.59                   63.308                   72.499                   94.804                   97.903                   99.794                   100.28                   64.731                   73.632                   95.144                   98.085                   99.914                   100.50                   73.918                   84.576                   105.50                   107.93                   109.34                   109.79
22.000                   3.0000                   3.0000                   1.4000                   6000.0                   1000.0                   35.000                   72.801                   81.922                   103.60                   106.50                   108.31                   108.90                   73.530                   82.826                   104.83                   107.76                   109.58                   110.17                   74.136                   83.538                   105.71                   108.65                   110.48                   111.07                   73.838                   83.188                   105.26                   108.19                   110.00                   110.59                   74.287                   83.721                   105.86                   108.78                   110.60                   111.18                   73.490                   82.722                   104.59                   107.51                   109.32                   109.91                   74.231                   83.588                   105.70                   108.65                   110.48                   111.07                   73.725                   83.007                   105.04                   107.97                   109.78                   110.36                   75.530                   84.517                   105.96                   108.85                   110.65                   111.24                   83.483                   92.911                   112.08                   114.36                   115.76                   116.22
22.000                   3.0000                   3.0000                   1.4000                   6000.0                   1000.0                   40.000                   83.011                   92.181                   113.85                   116.76                   118.57                   119.14                   83.990                   93.461                   116.10                   119.16                   121.07                   121.68                   84.693                   94.249                   116.84                   119.81                   121.66                   122.25                   84.448                   93.983                   116.60                   119.59                   121.43                   122.01                   84.798                   94.291                   116.55                   119.51                   121.34                   121.92                   83.989                   93.396                   115.60                   118.53                   120.34                   120.93                   84.929                   94.491                   117.19                   120.22                   122.07                   122.66                   84.619                   94.233                   117.26                   120.33                   122.16                   122.77                   86.459                   95.536                   117.02                   119.88                   121.66                   122.23                   94.297                   103.81                   123.23                   125.54                   126.94                   127.39
22.000                   3.0000                   3.0000                   1.4000                   6000.0                   1000.0                   45.000                   93.231                   102.43                   124.07                   126.97                   128.76                   129.31                   94.493                   104.13                   127.34                   130.49                   132.44                   133.06                   95.281                   104.99                   128.05                   131.06                   132.92                   133.51                   95.134                   104.87                   128.22                   131.36                   133.28                   133.89                   95.370                   104.95                   127.49                   130.51                   132.37                   132.96                   94.550                   104.12                   126.69                   129.65                   131.47                   132.06                   95.673                   105.42                   128.65                   131.74                   133.62                   134.21                   95.619                   105.53                   129.42                   132.64                   134.52                   135.12                   97.446                   106.60                   128.15                   131.01                   132.77                   133.33                   105.69                   115.61                   135.58                   137.95                   139.35                   139.80
22.000                   3.0000                   3.0000                   1.4000                   6000.0                   1000.0                   50.000                   103.47                   112.66                   134.24                   137.09                   138.84                   139.34                   105.08                   114.88                   138.53                   141.69                   143.61                   144.20                   105.93                   115.79                   139.41                   142.47                   144.32                   144.92                   105.96                   115.93                   140.37                   143.82                   145.94                   146.60                   106.06                   115.78                   138.89                   142.02                   143.93                   144.53                   105.22                   114.94                   137.93                   140.95                   142.80                   143.39                   106.50                   116.39                   140.04                   143.19                   145.09                   145.67                   106.82                   116.96                   141.48                   144.87                   146.80                   147.36                   108.54                   117.75                   139.42                   142.30                   144.07                   144.63                   118.17                   129.06                   150.15                   152.63                   154.05                   154.49
22.000                   3.0000                   3.0000                   1.4000                   6000.0                   1000.0                   55.000                   113.83                   123.12                   145.00                   147.90                   149.68                   150.19                   115.58                   125.46                   149.30                   152.47                   154.39                   154.99                   116.45                   126.39                   150.24                   153.34                   155.23                   155.84                   116.63                   126.68                   151.39                   154.90                   157.06                   157.74                   116.65                   126.46                   149.87                   153.05                   154.99                   155.60                   115.82                   125.63                   148.91                   151.99                   153.87                   154.47                   117.19                   127.16                   151.00                   154.20                   156.12                   156.71                   117.73                   127.96                   152.62                   156.03                   158.00                   158.55                   119.22                   128.50                   150.42                   153.35                   155.15                   155.72                   128.33                   139.17                   160.19                   162.68                   164.10                   164.55
22.000                   3.0000                   3.0000                   1.4000                   6000.0                   1000.0                   60.000                   124.27                   133.72                   156.15                   159.16                   161.01                   161.56                   126.02                   135.94                   159.79                   162.97                   164.93                   165.53                   126.90                   136.87                   160.74                   163.88                   165.81                   166.43                   127.18                   137.23                   161.68                   165.09                   167.20                   167.86                   127.19                   137.05                   160.59                   163.78                   165.74                   166.35                   126.37                   136.24                   159.72                   162.85                   164.78                   165.39                   127.79                   137.79                   161.70                   164.92                   166.88                   167.48                   128.47                   138.67                   163.15                   166.51                   168.49                   169.08                   129.64                   138.99                   161.24                   164.24                   166.09                   166.68                   137.01                   147.13                   167.33                   169.76                   171.19                   171.64
22.000                   3.0000                   3.0000                   1.4000                   6000.0                   1000.0                   65.000                   134.71                   144.32                   167.30                   170.41                   172.33                   172.93                   136.47                   146.42                   170.28                   173.48                   175.46                   176.08                   137.35                   147.34                   171.24                   174.42                   176.40                   177.02                   137.74                   147.79                   171.97                   175.28                   177.34                   177.99                   137.72                   147.64                   171.30                   174.50                   176.48                   177.10                   136.91                   146.85                   170.53                   173.71                   175.68                   176.31                   138.39                   148.42                   172.41                   175.63                   177.63                   178.25                   139.21                   149.39                   173.69                   176.98                   178.99                   179.60                   140.05                   149.47                   172.07                   175.13                   177.04                   177.64                   145.70                   155.09                   174.48                   176.84                   178.27                   178.73
22.000                   3.0000                   3.0000                   1.4000                   6000.0                   1000.0                   70.000                   145.19                   154.96                   178.51                   181.72                   183.72                   184.36                   146.94                   156.95                   180.87                   184.10                   186.11                   186.74                   147.84                   157.87                   181.87                   185.11                   187.12                   187.76                   148.33                   158.40                   182.42                   185.65                   187.66                   188.30                   148.29                   158.28                   182.12                   185.33                   187.34                   187.97                   147.49                   157.50                   181.43                   184.66                   186.67                   187.31                   149.02                   159.11                   183.21                   186.46                   188.49                   189.13                   149.98                   160.16                   184.39                   187.65                   189.68                   190.33                   150.48                   159.98                   182.92                   186.06                   188.01                   188.63                   154.53                   163.31                   182.02                   184.33                   185.77                   186.23
22.000                   3.0000                   3.0000                   1.4000                   6000.0                   1000.0                   75.000                   155.92                   165.91                   190.11                   193.44                   195.53                   196.21                   157.63                   167.80                   192.18                   195.46                   197.52                   198.17                   158.58                   168.81                   193.44                   196.77                   198.84                   199.49                   159.17                   169.43                   193.95                   197.22                   199.25                   199.89                   159.10                   169.28                   193.66                   196.96                   199.01                   199.66                   158.29                   168.47                   192.87                   196.17                   198.23                   198.88                   159.91                   170.17                   194.73                   198.05                   200.12                   200.77                   160.95                   171.31                   196.20                   199.60                   201.75                   202.41                   161.00                   170.64                   194.00                   197.21                   199.21                   199.84                   164.37                   173.26                   192.28                   194.62                   196.07                   196.53