% Model:              batchmodel_COIL_N_22_COIL_kr_3_COIL_kh_1_COIL_kturn_1.1_FUNZ_freq_6000_FUNZ_I_eff_4000.mph
% Version:            COMSOL 5.6.0.280
% Date:               Feb 3 2022, 02:26
% Table:              Tabella 1 - GRIGLIA_T
% COIL_N                 COIL_kr                  COIL_kh                  COIL_kturn               FUNZ_freq                FUNZ_I_eff               Time (s)                 Temperatura (degC), Punto: (0, 0)Temperatura (degC), Punto: (15, 0)Temperatura (degC), Punto: (27.483, 0)Temperatura (degC), Punto: (28.742, 0)Temperatura (degC), Punto: (29.497, 0)Temperatura (degC), Punto: (29.748, 0)Temperatura (degC), Punto: (0, 62.5)Temperatura (degC), Punto: (15, 62.5)Temperatura (degC), Punto: (27.483, 62.5)Temperatura (degC), Punto: (28.742, 62.5)Temperatura (degC), Punto: (29.497, 62.5)Temperatura (degC), Punto: (29.748, 62.5)Temperatura (degC), Punto: (0, 125)Temperatura (degC), Punto: (15, 125)Temperatura (degC), Punto: (27.483, 125)Temperatura (degC), Punto: (28.742, 125)Temperatura (degC), Punto: (29.497, 125)Temperatura (degC), Punto: (29.748, 125)Temperatura (degC), Punto: (0, 187.5)Temperatura (degC), Punto: (15, 187.5)Temperatura (degC), Punto: (27.483, 187.5)Temperatura (degC), Punto: (28.742, 187.5)Temperatura (degC), Punto: (29.497, 187.5)Temperatura (degC), Punto: (29.748, 187.5)Temperatura (degC), Punto: (0, 250)Temperatura (degC), Punto: (15, 250)Temperatura (degC), Punto: (27.483, 250)Temperatura (degC), Punto: (28.742, 250)Temperatura (degC), Punto: (29.497, 250)Temperatura (degC), Punto: (29.748, 250)Temperatura (degC), Punto: (0, 312.5)Temperatura (degC), Punto: (15, 312.5)Temperatura (degC), Punto: (27.483, 312.5)Temperatura (degC), Punto: (28.742, 312.5)Temperatura (degC), Punto: (29.497, 312.5)Temperatura (degC), Punto: (29.748, 312.5)Temperatura (degC), Punto: (0, 375)Temperatura (degC), Punto: (15, 375)Temperatura (degC), Punto: (27.483, 375)Temperatura (degC), Punto: (28.742, 375)Temperatura (degC), Punto: (29.497, 375)Temperatura (degC), Punto: (29.748, 375)Temperatura (degC), Punto: (0, 437.5)Temperatura (degC), Punto: (15, 437.5)Temperatura (degC), Punto: (27.483, 437.5)Temperatura (degC), Punto: (28.742, 437.5)Temperatura (degC), Punto: (29.497, 437.5)Temperatura (degC), Punto: (29.748, 437.5)Temperatura (degC), Punto: (0, 468.75)Temperatura (degC), Punto: (15, 468.75)Temperatura (degC), Punto: (27.483, 468.75)Temperatura (degC), Punto: (28.742, 468.75)Temperatura (degC), Punto: (29.497, 468.75)Temperatura (degC), Punto: (29.748, 468.75)Temperatura (degC), Punto: (0, 492.19)Temperatura (degC), Punto: (15, 492.19)Temperatura (degC), Punto: (27.483, 492.19)Temperatura (degC), Punto: (28.742, 492.19)Temperatura (degC), Punto: (29.497, 492.19)Temperatura (degC), Punto: (29.748, 492.19)
22.000                   3.0000                   1.0000                   1.1000                   6000.0                   4000.0                   0.0000                   20.000                   20.000                   20.000                   20.048                   20.666                   21.068                   20.000                   20.000                   20.000                   20.048                   20.666                   21.067                   20.000                   20.000                   20.000                   20.048                   20.665                   21.066                   20.000                   20.000                   20.000                   20.043                   20.642                   21.037                   20.000                   20.000                   20.000                   20.006                   20.369                   20.667                   20.000                   20.000                   20.000                   20.000                   20.057                   20.173                   20.000                   20.000                   20.000                   20.000                   20.004                   20.043                   20.000                   20.000                   20.000                   20.000                   20.000                   20.011                   20.000                   20.000                   20.000                   20.000                   20.000                   20.005                   20.000                   20.000                   20.000                   20.000                   20.000                   20.002
22.000                   3.0000                   1.0000                   1.1000                   6000.0                   4000.0                   5.0000                   51.253                   195.66                   1231.7                   1319.4                   1339.4                   1340.8                   50.987                   195.64                   1236.1                   1323.0                   1342.7                   1344.1                   51.126                   196.17                   1235.6                   1322.2                   1341.9                   1343.3                   50.373                   193.65                   1233.1                   1320.6                   1340.5                   1342.0                   40.351                   140.81                   716.48                   869.93                   945.46                   958.36                   25.411                   53.460                   194.19                   219.99                   236.18                   240.22                   21.838                   30.400                   64.857                   70.061                   73.307                   74.328                   20.776                   24.219                   36.680                   38.393                   39.444                   39.790                   20.801                   24.079                   34.061                   35.162                   35.798                   36.004                   21.524                   25.895                   36.261                   36.991                   37.363                   37.472
22.000                   3.0000                   1.0000                   1.1000                   6000.0                   4000.0                   10.000                   223.27                   455.21                   1353.2                   1381.2                   1385.5                   1384.7                   223.15                   455.64                   1354.5                   1382.4                   1386.6                   1385.8                   223.46                   455.97                   1354.1                   1382.0                   1386.2                   1385.4                   221.08                   452.36                   1341.7                   1370.2                   1374.6                   1373.9                   169.21                   338.35                   1147.8                   1224.6                   1242.1                   1243.4                   69.602                   131.38                   323.11                   354.70                   373.78                   378.21                   33.716                   48.455                   87.096                   92.545                   95.955                   97.021                   25.445                   30.622                   43.101                   44.779                   45.825                   46.174                   25.078                   29.044                   37.130                   38.119                   38.729                   38.932                   26.228                   30.019                   35.682                   36.196                   36.497                   36.596
22.000                   3.0000                   1.0000                   1.1000                   6000.0                   4000.0                   15.000                   404.24                   651.99                   1402.8                   1418.4                   1419.6                   1418.4                   404.18                   651.66                   1403.1                   1418.6                   1419.8                   1418.6                   404.40                   652.28                   1402.8                   1418.2                   1419.4                   1418.2                   400.83                   644.97                   1391.6                   1407.7                   1409.0                   1407.8                   321.10                   512.63                   1265.3                   1291.4                   1295.4                   1294.7                   142.19                   217.93                   436.75                   471.92                   492.42                   496.93                   51.452                   68.507                   110.67                   116.48                   120.11                   121.23                   31.536                   36.939                   49.764                   51.485                   52.556                   52.911                   29.574                   33.008                   40.627                   41.617                   42.231                   42.437                   29.935                   32.422                   36.935                   37.414                   37.708                   37.806
22.000                   3.0000                   1.0000                   1.1000                   6000.0                   4000.0                   20.000                   551.12                   831.59                   1447.0                   1461.7                   1462.7                   1461.4                   551.02                   831.70                   1447.3                   1462.0                   1463.1                   1461.7                   551.13                   831.25                   1446.6                   1461.3                   1462.2                   1460.9                   546.13                   816.73                   1430.9                   1443.6                   1444.1                   1442.7                   454.15                   652.43                   1279.0                   1293.9                   1295.1                   1294.0                   219.90                   301.22                   534.25                   571.48                   592.70                   597.21                   72.175                   90.721                   135.75                   141.92                   145.78                   146.95                   37.998                   43.544                   56.668                   58.423                   59.515                   59.877                   33.603                   36.836                   44.355                   45.354                   45.974                   46.182                   32.721                   34.759                   38.834                   39.328                   39.627                   39.727
22.000                   3.0000                   1.0000                   1.1000                   6000.0                   4000.0                   25.000                   667.28                   1024.9                   1541.4                   1559.6                   1560.7                   1559.1                   666.81                   1025.6                   1540.8                   1559.1                   1560.2                   1558.5                   666.71                   1024.4                   1539.4                   1557.6                   1558.7                   1557.0                   660.89                   1003.3                   1501.1                   1518.2                   1519.3                   1517.8                   564.55                   764.50                   1295.1                   1306.1                   1306.2                   1305.0                   293.86                   377.12                   613.18                   650.91                   672.24                   676.64                   95.062                   114.67                   162.33                   168.86                   172.93                   174.15                   44.756                   50.426                   63.810                   65.597                   66.708                   67.076                   37.495                   40.700                   48.250                   49.258                   49.885                   50.095                   35.299                   37.234                   41.269                   41.757                   42.056                   42.157
22.000                   3.0000                   1.0000                   1.1000                   6000.0                   4000.0                   30.000                   749.69                   1175.9                   1652.2                   1667.8                   1666.8                   1664.4                   747.58                   1175.3                   1651.2                   1666.8                   1665.9                   1663.5                   747.57                   1174.6                   1649.7                   1665.3                   1664.4                   1661.9                   740.96                   1150.1                   1603.8                   1619.5                   1619.1                   1617.0                   652.98                   881.83                   1325.6                   1334.8                   1334.3                   1332.9                   361.10                   443.98                   675.60                   713.21                   734.45                   738.77                   119.41                   140.00                   190.11                   196.98                   201.25                   202.52                   51.792                   57.572                   71.196                   73.012                   74.141                   74.515                   41.441                   44.668                   52.285                   53.303                   53.935                   54.147                   37.977                   39.909                   43.962                   44.453                   44.754                   44.855
22.000                   3.0000                   1.0000                   1.1000                   6000.0                   4000.0                   35.000                   885.54                   1295.2                   1758.3                   1770.0                   1766.5                   1763.2                   884.91                   1294.4                   1757.5                   1769.2                   1765.7                   1762.4                   884.07                   1293.5                   1755.7                   1767.5                   1764.1                   1760.8                   858.79                   1265.1                   1705.1                   1717.3                   1714.6                   1711.7                   717.74                   993.43                   1362.2                   1369.8                   1368.6                   1367.1                   421.03                   501.80                   724.58                   761.69                   782.90                   787.13                   144.82                   166.32                   218.61                   225.79                   230.26                   231.56                   59.098                   64.985                   78.839                   80.684                   81.830                   82.210                   45.510                   48.771                   56.458                   57.485                   58.123                   58.337                   40.834                   42.781                   46.857                   47.351                   47.653                   47.754
22.000                   3.0000                   1.0000                   1.1000                   6000.0                   4000.0                   40.000                   1088.3                   1399.9                   1854.8                   1862.3                   1856.0                   1851.8                   1087.7                   1398.3                   1854.1                   1861.5                   1855.3                   1851.1                   1086.4                   1396.9                   1852.0                   1859.5                   1853.4                   1849.2                   1049.0                   1364.2                   1797.3                   1805.7                   1800.6                   1796.9                   780.87                   1087.1                   1393.5                   1399.1                   1397.3                   1395.6                   474.02                   552.01                   767.55                   805.77                   826.98                   831.09                   170.84                   193.12                   247.53                   255.03                   259.69                   261.03                   66.684                   72.674                   86.760                   88.635                   89.800                   90.185                   49.732                   53.025                   60.784                   61.819                   62.463                   62.679                   43.878                   45.837                   49.936                   50.431                   50.734                   50.836
22.000                   3.0000                   1.0000                   1.1000                   6000.0                   4000.0                   45.000                   1238.7                   1512.3                   1939.8                   1942.8                   1933.9                   1928.8                   1240.9                   1509.1                   1939.1                   1942.1                   1933.2                   1928.1                   1240.0                   1504.8                   1936.6                   1939.7                   1930.9                   1925.8                   1203.6                   1459.6                   1878.3                   1882.8                   1875.3                   1870.8                   889.95                   1161.6                   1418.2                   1422.5                   1420.2                   1418.4                   518.69                   593.13                   805.89                   844.07                   864.49                   868.34                   197.08                   220.06                   276.51                   284.32                   289.17                   290.55                   74.690                   80.781                   95.100                   97.007                   98.192                   98.582                   54.198                   57.524                   65.357                   66.403                   67.053                   67.270                   47.184                   49.155                   53.273                   53.771                   54.075                   54.177
22.000                   3.0000                   1.0000                   1.1000                   6000.0                   4000.0                   50.000                   1337.2                   1625.8                   2018.3                   2016.9                   2005.3                   1999.3                   1341.1                   1624.2                   2017.7                   2016.4                   2004.8                   1998.7                   1340.5                   1618.8                   2014.8                   2013.6                   2002.1                   1996.1                   1312.3                   1563.1                   1953.4                   1954.0                   1944.1                   1938.7                   1007.6                   1227.2                   1448.8                   1452.9                   1450.3                   1448.4                   558.41                   629.21                   839.46                   875.66                   894.70                   898.23                   223.13                   246.76                   305.06                   313.15                   318.17                   319.57                   82.993                   89.182                   103.73                   105.67                   106.87                   107.27                   58.853                   62.211                   70.120                   71.175                   71.831                   72.050                   50.675                   52.656                   56.793                   57.292                   57.598                   57.700
22.000                   3.0000                   1.0000                   1.1000                   6000.0                   4000.0                   55.000                   1440.2                   1732.4                   2090.7                   2085.0                   2070.7                   2063.8                   1442.1                   1733.8                   2090.4                   2084.7                   2070.5                   2063.5                   1441.7                   1729.4                   2087.2                   2081.7                   2067.5                   2060.6                   1405.1                   1668.5                   2023.1                   2019.7                   2007.5                   2001.3                   1109.6                   1284.7                   1488.3                   1492.2                   1489.2                   1487.2                   593.93                   661.45                   868.80                   902.02                   919.29                   922.45                   248.80                   273.04                   333.01                   341.36                   346.53                   347.96                   91.562                   97.844                   112.62                   114.60                   115.82                   116.22                   63.692                   67.085                   75.070                   76.135                   76.798                   77.019                   54.339                   56.330                   60.485                   60.986                   61.292                   61.395
22.000                   3.0000                   1.0000                   1.1000                   6000.0                   4000.0                   60.000                   1587.1                   1837.5                   2158.0                   2148.0                   2131.0                   2123.2                   1586.2                   1839.0                   2157.9                   2147.9                   2131.0                   2123.2                   1585.9                   1835.0                   2154.5                   2144.7                   2127.9                   2120.1                   1517.7                   1769.1                   2088.1                   2080.8                   2066.2                   2059.2                   1193.5                   1334.6                   1531.7                   1534.6                   1530.9                   1528.6                   625.89                   690.65                   895.36                   925.24                   940.56                   943.32                   273.99                   298.78                   360.36                   368.95                   374.27                   375.72                   100.36                   106.74                   121.77                   123.78                   125.02                   125.43                   68.709                   72.135                   80.200                   81.276                   81.944                   82.167                   58.165                   60.167                   64.339                   64.842                   65.150                   65.252
22.000                   3.0000                   1.0000                   1.1000                   6000.0                   4000.0                   65.000                   1713.0                   1937.8                   2220.7                   2206.5                   2186.9                   2178.2                   1712.2                   1938.9                   2220.8                   2206.5                   2187.0                   2178.3                   1710.2                   1935.0                   2217.3                   2203.2                   2183.8                   2175.2                   1638.3                   1864.0                   2149.0                   2137.9                   2120.8                   2113.1                   1263.3                   1377.7                   1574.2                   1575.6                   1571.2                   1568.6                   654.96                   717.47                   920.35                   946.63                   959.97                   962.33                   298.66                   323.97                   387.05                   395.88                   401.34                   402.80                   109.35                   115.84                   131.13                   133.18                   134.44                   134.86                   73.890                   77.351                   85.497                   86.583                   87.258                   87.483                   62.142                   64.155                   68.345                   68.850                   69.158                   69.261
22.000                   3.0000                   1.0000                   1.1000                   6000.0                   4000.0                   70.000                   1827.8                   2032.4                   2279.0                   2260.5                   2238.5                   2228.9                   1827.1                   2033.0                   2279.1                   2260.7                   2238.6                   2229.0                   1823.8                   2029.0                   2275.6                   2257.3                   2235.4                   2225.8                   1749.0                   1953.2                   2205.6                   2190.7                   2171.4                   2162.9                   1321.2                   1416.5                   1615.0                   1615.0                   1609.6                   1606.8                   681.30                   742.82                   944.41                   967.16                   978.48                   980.44                   322.74                   348.54                   412.98                   422.00                   427.56                   429.04                   118.54                   125.14                   140.71                   142.79                   144.08                   144.50                   79.241                   82.736                   90.963                   92.061                   92.743                   92.970                   66.278                   68.301                   72.509                   73.015                   73.325                   73.428
22.000                   3.0000                   1.0000                   1.1000                   6000.0                   4000.0                   75.000                   1922.4                   2112.1                   2326.9                   2304.7                   2280.3                   2270.0                   1921.9                   2112.3                   2327.0                   2304.8                   2280.4                   2270.1                   1918.1                   2108.1                   2323.4                   2301.4                   2277.2                   2266.9                   1839.4                   2028.9                   2252.5                   2234.2                   2212.8                   2203.5                   1356.8                   1467.4                   1652.6                   1651.0                   1644.8                   1641.7                   702.81                   770.67                   969.71                   989.98                   999.33                   1000.8                   345.20                   371.38                   436.78                   445.93                   451.56                   453.03                   128.16                   134.87                   150.71                   152.83                   154.14                   154.57                   85.005                   88.533                   96.838                   97.947                   98.636                   98.866                   70.813                   72.847                   77.072                   77.579                   77.890                   77.993