% Model:              batchmodel_COIL_N_22_COIL_kr_3_COIL_kh_2_COIL_kturn_1.7_FUNZ_freq_2000_FUNZ_I_eff_2500.mph
% Version:            COMSOL 5.6.0.280
% Date:               Feb 3 2022, 06:16
% Table:              Tabella 1 - GRIGLIA_T
% COIL_N                 COIL_kr                  COIL_kh                  COIL_kturn               FUNZ_freq                FUNZ_I_eff               Time (s)                 Temperatura (degC), Punto: (0, 0)Temperatura (degC), Punto: (15, 0)Temperatura (degC), Punto: (25.641, 0)Temperatura (degC), Punto: (27.821, 0)Temperatura (degC), Punto: (29.128, 0)Temperatura (degC), Punto: (29.564, 0)Temperatura (degC), Punto: (0, 62.5)Temperatura (degC), Punto: (15, 62.5)Temperatura (degC), Punto: (25.641, 62.5)Temperatura (degC), Punto: (27.821, 62.5)Temperatura (degC), Punto: (29.128, 62.5)Temperatura (degC), Punto: (29.564, 62.5)Temperatura (degC), Punto: (0, 125)Temperatura (degC), Punto: (15, 125)Temperatura (degC), Punto: (25.641, 125)Temperatura (degC), Punto: (27.821, 125)Temperatura (degC), Punto: (29.128, 125)Temperatura (degC), Punto: (29.564, 125)Temperatura (degC), Punto: (0, 187.5)Temperatura (degC), Punto: (15, 187.5)Temperatura (degC), Punto: (25.641, 187.5)Temperatura (degC), Punto: (27.821, 187.5)Temperatura (degC), Punto: (29.128, 187.5)Temperatura (degC), Punto: (29.564, 187.5)Temperatura (degC), Punto: (0, 250)Temperatura (degC), Punto: (15, 250)Temperatura (degC), Punto: (25.641, 250)Temperatura (degC), Punto: (27.821, 250)Temperatura (degC), Punto: (29.128, 250)Temperatura (degC), Punto: (29.564, 250)Temperatura (degC), Punto: (0, 312.5)Temperatura (degC), Punto: (15, 312.5)Temperatura (degC), Punto: (25.641, 312.5)Temperatura (degC), Punto: (27.821, 312.5)Temperatura (degC), Punto: (29.128, 312.5)Temperatura (degC), Punto: (29.564, 312.5)Temperatura (degC), Punto: (0, 375)Temperatura (degC), Punto: (15, 375)Temperatura (degC), Punto: (25.641, 375)Temperatura (degC), Punto: (27.821, 375)Temperatura (degC), Punto: (29.128, 375)Temperatura (degC), Punto: (29.564, 375)Temperatura (degC), Punto: (0, 437.5)Temperatura (degC), Punto: (15, 437.5)Temperatura (degC), Punto: (25.641, 437.5)Temperatura (degC), Punto: (27.821, 437.5)Temperatura (degC), Punto: (29.128, 437.5)Temperatura (degC), Punto: (29.564, 437.5)Temperatura (degC), Punto: (0, 468.75)Temperatura (degC), Punto: (15, 468.75)Temperatura (degC), Punto: (25.641, 468.75)Temperatura (degC), Punto: (27.821, 468.75)Temperatura (degC), Punto: (29.128, 468.75)Temperatura (degC), Punto: (29.564, 468.75)Temperatura (degC), Punto: (0, 492.19)Temperatura (degC), Punto: (15, 492.19)Temperatura (degC), Punto: (25.641, 492.19)Temperatura (degC), Punto: (27.821, 492.19)Temperatura (degC), Punto: (29.128, 492.19)Temperatura (degC), Punto: (29.564, 492.19)
22.000                   3.0000                   2.0000                   1.7000                   2000.0                   2500.0                   0.0000                   20.000                   20.000                   20.000                   20.000                   20.012                   20.045                   20.000                   20.000                   20.000                   20.000                   20.012                   20.045                   20.000                   20.000                   20.000                   20.000                   20.012                   20.045                   20.000                   20.000                   20.000                   20.000                   20.012                   20.045                   20.000                   20.000                   20.000                   20.000                   20.012                   20.045                   20.000                   20.000                   20.000                   20.000                   20.012                   20.045                   20.000                   20.000                   20.000                   20.000                   20.012                   20.045                   20.000                   20.000                   20.000                   20.000                   20.013                   20.046                   20.000                   20.000                   20.000                   20.000                   20.012                   20.045                   20.000                   20.000                   20.000                   20.000                   20.008                   20.038
22.000                   3.0000                   2.0000                   1.7000                   2000.0                   2500.0                   5.0000                   23.197                   33.228                   72.258                   86.210                   94.786                   97.278                   23.198                   33.257                   72.702                   86.976                   95.885                   98.425                   23.192                   33.226                   72.490                   86.778                   95.475                   97.982                   23.200                   33.272                   72.974                   87.510                   96.541                   99.065                   23.203                   33.260                   72.469                   86.616                   95.334                   97.799                   23.204                   33.277                   72.565                   86.820                   95.542                   97.986                   23.138                   32.979                   71.404                   85.504                   94.306                   96.811                   23.121                   32.930                   71.169                   85.151                   93.898                   96.351                   23.055                   32.641                   70.080                   83.787                   92.162                   94.534                   24.119                   33.347                   65.072                   76.405                   83.647                   85.712
22.000                   3.0000                   2.0000                   1.7000                   2000.0                   2500.0                   10.000                   40.313                   63.103                   120.65                   137.23                   147.25                   149.98                   40.326                   63.129                   120.32                   137.14                   147.41                   150.13                   40.338                   63.149                   120.11                   136.91                   146.72                   149.41                   40.358                   63.199                   120.77                   137.79                   148.04                   150.71                   40.314                   62.991                   118.88                   134.85                   144.12                   146.70                   40.344                   63.120                   119.52                   135.93                   145.31                   147.95                   40.063                   62.626                   119.54                   136.73                   147.02                   149.80                   39.743                   61.801                   116.86                   133.25                   142.71                   145.32                   39.304                   60.766                   113.98                   129.85                   139.29                   142.01                   41.920                   61.663                   106.33                   119.01                   126.51                   128.64
22.000                   3.0000                   2.0000                   1.7000                   2000.0                   2500.0                   15.000                   68.094                   99.233                   168.32                   186.97                   197.30                   200.12                   68.023                   98.877                   165.18                   183.01                   193.38                   196.20                   68.092                   98.953                   164.57                   182.45                   192.51                   195.32                   68.144                   99.163                   166.87                   185.46                   196.48                   199.30                   68.056                   98.893                   165.07                   183.05                   193.42                   196.33                   68.072                   98.953                   165.33                   183.57                   194.11                   197.08                   67.710                   98.748                   166.68                   186.06                   197.82                   200.79                   66.697                   96.717                   161.76                   180.06                   190.52                   193.38                   65.613                   94.733                   157.82                   176.07                   187.09                   190.03                   69.058                   94.978                   145.81                   159.25                   167.09                   169.31
22.000                   3.0000                   2.0000                   1.7000                   2000.0                   2500.0                   20.000                   103.02                   137.37                   207.70                   225.73                   235.66                   238.41                   102.94                   137.17                   206.49                   224.16                   234.03                   236.92                   102.92                   136.80                   203.82                   220.86                   230.29                   233.15                   103.22                   137.80                   209.29                   228.28                   239.11                   242.05                   103.20                   137.87                   209.49                   228.98                   240.77                   244.01                   103.09                   137.65                   209.27                   228.90                   240.84                   244.01                   102.91                   137.93                   210.23                   230.12                   242.07                   245.09                   100.88                   134.61                   203.99                   223.28                   234.59                   237.73                   98.665                   130.72                   195.24                   212.80                   223.00                   225.54                   100.80                   129.13                   182.11                   195.89                   203.99                   206.28
22.000                   3.0000                   2.0000                   1.7000                   2000.0                   2500.0                   25.000                   139.19                   174.47                   244.39                   263.56                   275.36                   278.39                   139.27                   174.75                   245.08                   264.28                   276.06                   279.14                   138.95                   173.88                   242.58                   261.40                   272.99                   276.06                   139.75                   175.64                   247.43                   267.19                   279.29                   282.39                   139.89                   176.08                   248.67                   268.80                   281.32                   284.52                   139.55                   175.51                   247.84                   267.96                   280.52                   283.70                   139.76                   176.27                   249.18                   269.36                   281.84                   284.98                   136.76                   172.13                   243.14                   262.98                   275.25                   278.41                   132.82                   165.75                   230.73                   248.67                   259.79                   262.62                   132.18                   160.87                   213.30                   226.94                   235.34                   237.62
22.000                   3.0000                   2.0000                   1.7000                   2000.0                   2500.0                   30.000                   175.73                   211.93                   286.91                   307.98                   321.36                   324.68                   176.01                   212.43                   287.17                   308.39                   321.84                   325.07                   175.32                   211.14                   284.38                   305.41                   318.62                   321.84                   176.60                   213.21                   287.79                   308.78                   321.98                   325.18                   176.94                   213.90                   289.17                   310.30                   323.46                   326.61                   176.34                   213.04                   287.79                   308.72                   321.68                   324.91                   176.98                   214.10                   289.21                   310.37                   323.65                   326.91                   173.10                   209.33                   283.07                   304.05                   316.98                   320.12                   167.06                   200.45                   268.24                   287.60                   299.83                   302.94                   163.83                   192.60                   245.91                   259.78                   268.27                   270.45
22.000                   3.0000                   2.0000                   1.7000                   2000.0                   2500.0                   35.000                   212.39                   250.45                   334.75                   358.43                   373.01                   376.59                   212.80                   250.79                   333.25                   357.04                   371.73                   375.14                   211.71                   249.15                   329.18                   351.95                   365.84                   369.27                   213.31                   251.00                   331.30                   354.12                   368.12                   371.43                   213.81                   251.86                   333.21                   356.83                   371.38                   374.67                   212.99                   250.78                   331.14                   353.96                   367.97                   371.51                   213.94                   251.87                   331.69                   354.69                   369.02                   372.49                   209.28                   246.44                   324.74                   347.59                   361.14                   364.43                   200.98                   235.29                   308.29                   329.71                   343.01                   346.29                   195.89                   225.06                   281.03                   295.72                   304.35                   306.49
22.000                   3.0000                   2.0000                   1.7000                   2000.0                   2500.0                   40.000                   249.10                   289.47                   381.11                   407.51                   423.47                   427.26                   249.51                   289.50                   378.73                   405.17                   421.20                   424.84                   248.08                   287.57                   373.83                   398.09                   412.87                   416.58                   249.75                   288.95                   374.61                   399.46                   414.39                   417.90                   250.38                   289.97                   377.62                   404.23                   420.49                   424.01                   249.42                   288.75                   374.93                   400.06                   415.60                   419.51                   250.51                   289.71                   374.39                   399.35                   414.72                   418.45                   245.07                   283.46                   366.37                   390.97                   405.40                   408.95                   234.52                   270.10                   347.89                   371.08                   385.47                   388.91                   227.65                   257.30                   315.39                   330.91                   339.98                   342.20
22.000                   3.0000                   2.0000                   1.7000                   2000.0                   2500.0                   45.000                   285.60                   327.89                   422.04                   449.36                   465.72                   469.48                   285.88                   327.69                   419.84                   447.13                   463.52                   467.19                   284.26                   325.64                   415.64                   441.33                   456.89                   460.61                   285.80                   326.70                   415.73                   441.81                   457.44                   461.03                   286.52                   327.78                   418.49                   445.89                   462.49                   466.09                   285.49                   326.55                   416.16                   442.54                   458.68                   462.55                   286.57                   327.40                   415.75                   441.92                   457.87                   461.61                   280.24                   320.13                   406.29                   431.85                   447.00                   450.60                   267.50                   304.25                   384.08                   407.70                   422.25                   425.66                   258.20                   288.34                   346.98                   362.70                   372.07                   374.37
22.000                   3.0000                   2.0000                   1.7000                   2000.0                   2500.0                   50.000                   321.84                   365.87                   460.06                   487.31                   503.58                   507.19                   321.88                   365.44                   458.52                   485.65                   501.84                   505.44                   320.20                   363.43                   455.84                   482.86                   499.11                   502.72                   321.48                   364.32                   456.05                   483.03                   499.27                   502.89                   322.25                   365.36                   457.78                   484.93                   501.23                   504.85                   321.21                   364.16                   456.23                   483.36                   499.73                   503.35                   322.13                   364.92                   456.64                   483.73                   500.06                   503.68                   314.83                   356.47                   445.42                   471.59                   487.45                   490.99                   299.94                   337.92                   418.52                   441.90                   456.13                   459.40                   288.10                   318.78                   377.21                   392.80                   402.38                   404.75
22.000                   3.0000                   2.0000                   1.7000                   2000.0                   2500.0                   55.000                   357.53                   403.38                   502.09                   530.30                   547.21                   550.94                   357.38                   402.67                   499.78                   527.79                   544.38                   548.05                   355.76                   400.81                   497.33                   525.62                   542.61                   546.35                   357.02                   401.91                   499.09                   527.71                   544.89                   548.66                   357.77                   402.85                   500.27                   528.80                   545.92                   549.69                   356.61                   401.42                   498.27                   526.93                   544.33                   548.05                   357.44                   402.18                   499.10                   527.83                   545.04                   548.76                   349.15                   392.57                   486.10                   513.71                   530.51                   534.17                   332.14                   371.57                   455.59                   479.97                   494.64                   497.93                   318.95                   350.30                   410.12                   425.93                   435.56                   437.96
22.000                   3.0000                   2.0000                   1.7000                   2000.0                   2500.0                   60.000                   393.22                   440.89                   544.13                   573.29                   590.83                   594.70                   392.88                   439.89                   541.04                   569.92                   586.93                   590.66                   391.32                   438.19                   538.81                   568.38                   586.11                   589.98                   392.56                   439.51                   542.14                   572.39                   590.51                   594.42                   393.30                   440.35                   542.75                   572.68                   590.61                   594.53                   392.00                   438.67                   540.31                   570.50                   588.94                   592.76                   392.75                   439.44                   541.57                   571.92                   590.03                   593.84                   383.46                   428.68                   526.78                   555.83                   573.58                   577.35                   364.33                   405.22                   492.66                   518.05                   533.14                   536.47                   349.79                   381.82                   443.03                   459.06                   468.73                   471.17
22.000                   3.0000                   2.0000                   1.7000                   2000.0                   2500.0                   65.000                   426.71                   475.56                   581.24                   611.12                   628.99                   632.91                   426.06                   474.03                   576.62                   605.85                   622.89                   626.61                   424.83                   472.91                   575.87                   606.21                   624.39                   628.32                   426.09                   474.41                   579.65                   610.60                   629.19                   633.19                   426.76                   475.10                   580.05                   610.91                   629.50                   633.50                   425.30                   473.15                   576.92                   607.72                   626.56                   630.43                   425.82                   473.66                   577.55                   608.34                   626.71                   630.55                   415.76                   462.22                   562.89                   592.87                   611.19                   615.00                   394.71                   436.50                   525.85                   551.67                   566.97                   570.31                   378.49                   411.06                   473.52                   489.98                   500.06                   502.55
22.000                   3.0000                   2.0000                   1.7000                   2000.0                   2500.0                   70.000                   459.96                   509.90                   617.80                   648.37                   666.53                   670.51                   458.98                   507.83                   611.57                   641.09                   658.11                   661.83                   458.11                   507.32                   612.43                   643.49                   662.08                   666.08                   459.39                   509.02                   616.55                   648.08                   667.10                   671.17                   459.98                   509.54                   616.76                   648.50                   667.74                   671.82                   458.35                   507.32                   612.92                   644.24                   663.41                   667.32                   458.65                   507.55                   612.81                   643.90                   662.47                   666.31                   447.84                   495.49                   598.50                   629.34                   648.20                   652.04                   424.89                   467.52                   558.59                   584.79                   600.28                   603.63                   406.94                   440.05                   503.74                   520.65                   531.18                   533.74
22.000                   3.0000                   2.0000                   1.7000                   2000.0                   2500.0                   75.000                   491.35                   541.82                   650.86                   682.56                   701.28                   705.26                   490.16                   539.55                   644.63                   675.28                   692.95                   696.69                   489.61                   539.48                   646.19                   678.25                   697.34                   701.34                   490.92                   541.23                   650.03                   682.47                   701.92                   705.99                   491.43                   541.63                   650.14                   682.85                   702.56                   706.63                   489.70                   539.33                   646.31                   678.53                   698.05                   701.98                   489.79                   539.33                   645.87                   677.81                   696.79                   700.66                   478.41                   526.94                   631.90                   663.69                   682.86                   686.70                   453.72                   497.15                   590.11                   617.21                   633.15                   636.52                   433.86                   467.44                   532.10                   549.41                   560.13                   562.66