% Model:              batchmodel_COIL_N_22_COIL_kr_3_COIL_kh_1_COIL_kturn_1.7_FUNZ_freq_6000_FUNZ_I_eff_1000.mph
% Version:            COMSOL 5.6.0.280
% Date:               Feb 3 2022, 03:26
% Table:              Tabella 1 - GRIGLIA_T
% COIL_N                 COIL_kr                  COIL_kh                  COIL_kturn               FUNZ_freq                FUNZ_I_eff               Time (s)                 Temperatura (degC), Punto: (0, 0)Temperatura (degC), Punto: (15, 0)Temperatura (degC), Punto: (27.483, 0)Temperatura (degC), Punto: (28.742, 0)Temperatura (degC), Punto: (29.497, 0)Temperatura (degC), Punto: (29.748, 0)Temperatura (degC), Punto: (0, 62.5)Temperatura (degC), Punto: (15, 62.5)Temperatura (degC), Punto: (27.483, 62.5)Temperatura (degC), Punto: (28.742, 62.5)Temperatura (degC), Punto: (29.497, 62.5)Temperatura (degC), Punto: (29.748, 62.5)Temperatura (degC), Punto: (0, 125)Temperatura (degC), Punto: (15, 125)Temperatura (degC), Punto: (27.483, 125)Temperatura (degC), Punto: (28.742, 125)Temperatura (degC), Punto: (29.497, 125)Temperatura (degC), Punto: (29.748, 125)Temperatura (degC), Punto: (0, 187.5)Temperatura (degC), Punto: (15, 187.5)Temperatura (degC), Punto: (27.483, 187.5)Temperatura (degC), Punto: (28.742, 187.5)Temperatura (degC), Punto: (29.497, 187.5)Temperatura (degC), Punto: (29.748, 187.5)Temperatura (degC), Punto: (0, 250)Temperatura (degC), Punto: (15, 250)Temperatura (degC), Punto: (27.483, 250)Temperatura (degC), Punto: (28.742, 250)Temperatura (degC), Punto: (29.497, 250)Temperatura (degC), Punto: (29.748, 250)Temperatura (degC), Punto: (0, 312.5)Temperatura (degC), Punto: (15, 312.5)Temperatura (degC), Punto: (27.483, 312.5)Temperatura (degC), Punto: (28.742, 312.5)Temperatura (degC), Punto: (29.497, 312.5)Temperatura (degC), Punto: (29.748, 312.5)Temperatura (degC), Punto: (0, 375)Temperatura (degC), Punto: (15, 375)Temperatura (degC), Punto: (27.483, 375)Temperatura (degC), Punto: (28.742, 375)Temperatura (degC), Punto: (29.497, 375)Temperatura (degC), Punto: (29.748, 375)Temperatura (degC), Punto: (0, 437.5)Temperatura (degC), Punto: (15, 437.5)Temperatura (degC), Punto: (27.483, 437.5)Temperatura (degC), Punto: (28.742, 437.5)Temperatura (degC), Punto: (29.497, 437.5)Temperatura (degC), Punto: (29.748, 437.5)Temperatura (degC), Punto: (0, 468.75)Temperatura (degC), Punto: (15, 468.75)Temperatura (degC), Punto: (27.483, 468.75)Temperatura (degC), Punto: (28.742, 468.75)Temperatura (degC), Punto: (29.497, 468.75)Temperatura (degC), Punto: (29.748, 468.75)Temperatura (degC), Punto: (0, 492.19)Temperatura (degC), Punto: (15, 492.19)Temperatura (degC), Punto: (27.483, 492.19)Temperatura (degC), Punto: (28.742, 492.19)Temperatura (degC), Punto: (29.497, 492.19)Temperatura (degC), Punto: (29.748, 492.19)
22.000                   3.0000                   1.0000                   1.7000                   6000.0                   1000.0                   0.0000                   20.000                   20.000                   20.000                   20.000                   20.019                   20.090                   20.000                   20.000                   20.000                   20.000                   20.019                   20.090                   20.000                   20.000                   20.000                   20.000                   20.019                   20.090                   20.000                   20.000                   20.000                   20.000                   20.019                   20.090                   20.000                   20.000                   20.000                   20.000                   20.018                   20.090                   20.000                   20.000                   20.000                   20.000                   20.017                   20.087                   20.000                   20.000                   20.000                   20.000                   20.006                   20.053                   20.000                   20.000                   20.000                   20.000                   20.000                   20.009                   20.000                   20.000                   20.000                   20.000                   20.000                   20.003                   20.000                   20.000                   20.000                   20.000                   20.000                   20.001
22.000                   3.0000                   1.0000                   1.7000                   6000.0                   1000.0                   5.0000                   23.663                   34.376                   90.754                   101.35                   107.91                   109.83                   23.642                   34.320                   90.375                   100.90                   107.40                   109.31                   23.651                   34.372                   90.861                   101.52                   108.14                   110.09                   23.635                   34.309                   90.462                   101.02                   107.57                   109.47                   23.732                   34.756                   93.439                   104.53                   111.30                   113.34                   23.547                   33.983                   88.948                   99.252                   105.64                   107.51                   22.239                   28.858                   64.851                   71.803                   75.996                   77.259                   20.680                   22.582                   31.837                   33.473                   34.425                   34.707                   20.498                   21.996                   30.150                   31.641                   32.361                   32.540                   20.456                   21.775                   28.062                   29.184                   29.652                   29.739
22.000                   3.0000                   1.0000                   1.7000                   6000.0                   1000.0                   10.000                   43.764                   68.538                   149.09                   162.16                   170.20                   172.49                   43.799                   68.726                   150.42                   163.72                   171.89                   174.26                   43.732                   68.453                   148.47                   161.36                   169.32                   171.60                   43.638                   68.243                   147.66                   160.33                   168.05                   170.30                   43.940                   68.610                   146.38                   158.46                   165.73                   167.81                   42.571                   65.799                   139.02                   150.46                   157.36                   159.34                   34.416                   49.355                   96.395                   103.52                   107.33                   108.39                   24.524                   28.978                   42.396                   44.292                   45.290                   45.561                   23.451                   27.142                   39.351                   41.263                   42.142                   42.331                   23.157                   26.469                   35.642                   36.784                   37.201                   37.270
22.000                   3.0000                   1.0000                   1.7000                   6000.0                   1000.0                   15.000                   76.780                   111.00                   210.00                   225.40                   234.49                   236.97                   77.049                   111.62                   212.04                   227.57                   236.63                   239.13                   76.727                   110.85                   209.45                   224.77                   233.78                   236.26                   76.628                   110.75                   209.42                   224.60                   233.35                   235.82                   76.642                   110.28                   206.42                   221.07                   229.38                   231.74                   72.907                   104.23                   193.24                   206.85                   214.60                   216.75                   54.398                   74.917                   132.94                   141.47                   145.83                   147.01                   31.744                   38.538                   57.187                   59.753                   60.990                   61.297                   29.298                   35.252                   53.146                   55.837                   56.851                   57.043                   28.923                   34.872                   50.552                   52.557                   53.239                   53.328
22.000                   3.0000                   1.0000                   1.7000                   6000.0                   1000.0                   20.000                   116.96                   156.55                   263.44                   279.15                   288.25                   290.64                   117.35                   157.05                   263.56                   279.01                   287.88                   290.14                   116.94                   156.48                   263.53                   279.39                   288.51                   290.89                   117.13                   157.08                   266.23                   282.43                   291.72                   294.20                   116.65                   156.04                   263.46                   279.17                   288.20                   290.65                   109.55                   145.68                   242.95                   257.14                   265.26                   267.43                   79.128                   103.03                   166.45                   175.11                   179.55                   180.75                   41.706                   50.296                   72.018                   74.851                   76.232                   76.590                   37.600                   45.321                   65.577                   68.220                   69.111                   69.257                   37.325                   45.363                   64.185                   66.349                   67.083                   67.158
22.000                   3.0000                   1.0000                   1.7000                   6000.0                   1000.0                   25.000                   159.47                   202.78                   317.03                   333.66                   343.37                   345.77                   159.61                   202.50                   313.80                   329.72                   338.90                   341.08                   159.54                   202.83                   317.38                   334.16                   343.76                   346.16                   160.38                   204.60                   323.11                   340.76                   351.13                   353.71                   159.54                   203.38                   321.51                   338.79                   348.89                   351.47                   148.32                   187.84                   291.60                   306.54                   315.29                   317.51                   105.64                   131.79                   199.10                   208.09                   212.72                   214.01                   52.976                   62.601                   85.432                   88.307                   89.719                   90.089                   47.033                   55.753                   76.562                   79.018                   79.757                   79.862                   46.881                   56.100                   75.980                   78.151                   78.884                   78.946
22.000                   3.0000                   1.0000                   1.7000                   6000.0                   1000.0                   30.000                   200.76                   245.65                   362.42                   379.22                   389.14                   391.50                   200.23                   244.11                   355.58                   371.28                   380.42                   382.50                   201.06                   245.95                   362.81                   379.65                   389.35                   391.71                   203.45                   250.05                   373.68                   392.08                   403.05                   405.68                   202.70                   249.26                   374.06                   392.37                   403.26                   405.92                   187.39                   229.05                   337.47                   353.02                   362.25                   364.52                   132.12                   159.07                   226.64                   235.26                   239.54                   240.80                   64.745                   74.534                   96.701                   99.365                   100.68                   101.03                   56.952                   65.879                   85.984                   88.241                   88.916                   89.018                   57.239                   67.057                   87.528                   89.784                   90.569                   90.636
22.000                   3.0000                   1.0000                   1.7000                   6000.0                   1000.0                   35.000                   241.78                   287.81                   406.08                   422.89                   432.94                   435.24                   240.50                   284.92                   395.59                   410.91                   419.93                   421.91                   242.33                   288.37                   406.47                   423.19                   432.90                   435.22                   246.45                   295.05                   422.92                   441.91                   453.40                   456.06                   245.90                   294.83                   425.44                   444.67                   456.29                   459.01                   226.50                   270.06                   382.77                   398.88                   408.57                   410.88                   158.58                   186.04                   253.12                   261.21                   265.04                   266.22                   76.609                   86.385                   107.53                   109.93                   111.11                   111.45                   66.966                   75.939                   95.087                   97.142                   97.770                   97.878                   67.758                   78.058                   99.037                   101.40                   102.24                   102.32
22.000                   3.0000                   1.0000                   1.7000                   6000.0                   1000.0                   40.000                   282.39                   329.82                   453.31                   471.22                   481.96                   484.40                   280.52                   326.22                   442.72                   459.38                   469.30                   471.49                   283.25                   330.72                   454.11                   471.94                   482.43                   484.88                   288.85                   339.08                   471.83                   491.64                   503.61                   506.33                   288.50                   339.20                   474.65                   494.73                   506.85                   509.63                   265.27                   310.41                   428.14                   445.18                   455.48                   457.90                   184.63                   212.18                   278.92                   287.16                   291.39                   292.66                   88.091                   97.296                   116.63                   118.80                   119.93                   120.28                   75.756                   83.756                   99.713                   101.34                   101.91                   102.03                   76.247                   85.295                   102.47                   104.28                   104.95                   105.03
22.000                   3.0000                   1.0000                   1.7000                   6000.0                   1000.0                   45.000                   322.65                   371.70                   503.61                   523.55                   535.47                   538.20                   320.33                   367.95                   495.93                   515.42                   527.12                   529.79                   323.88                   373.02                   505.16                   525.15                   537.07                   539.80                   330.73                   382.28                   520.47                   541.28                   553.70                   556.50                   330.59                   382.54                   521.99                   542.88                   555.30                   558.12                   303.73                   350.21                   473.57                   491.88                   502.90                   505.49                   210.34                   237.63                   304.15                   313.11                   318.49                   319.99                   99.247                   107.40                   124.25                   126.21                   127.37                   127.74                   83.499                   89.652                   100.51                   101.50                   102.00                   102.16                   82.997                   89.311                   98.992                   99.693                   99.990                   100.05
22.000                   3.0000                   1.0000                   1.7000                   6000.0                   1000.0                   50.000                   362.60                   414.09                   556.81                   579.14                   592.33                   595.30                   360.11                   410.47                   551.12                   573.31                   586.52                   589.50                   364.15                   415.78                   559.18                   581.72                   595.07                   598.04                   371.65                   425.22                   572.48                   595.28                   608.69                   611.65                   371.53                   425.32                   572.41                   594.99                   608.27                   611.21                   341.63                   389.97                   521.08                   540.94                   552.77                   555.48                   235.98                   263.86                   333.58                   343.48                   349.71                   351.34                   110.52                   118.36                   135.14                   137.19                   138.42                   138.80                   91.481                   97.182                   108.29                   109.49                   110.10                   110.28                   89.808                   95.184                   103.46                   104.03                   104.28                   104.33
22.000                   3.0000                   1.0000                   1.7000                   6000.0                   1000.0                   55.000                   402.43                   456.68                   611.20                   636.08                   650.57                   653.78                   399.87                   453.33                   607.12                   631.97                   646.58                   649.81                   404.27                   458.72                   614.43                   639.69                   654.46                   657.64                   412.16                   468.06                   625.88                   651.08                   665.70                   668.85                   412.01                   467.87                   624.10                   648.73                   663.10                   666.19                   379.29                   429.72                   569.44                   590.97                   603.64                   606.48                   261.58                   290.41                   364.73                   375.66                   382.63                   384.35                   121.83                   129.67                   147.38                   149.65                   150.95                   151.35                   99.562                   105.39                   118.95                   120.71                   121.50                   121.69                   96.643                   101.82                   111.21                   112.05                   112.40                   112.44
22.000                   3.0000                   1.0000                   1.7000                   6000.0                   1000.0                   60.000                   440.63                   497.31                   659.14                   685.67                   701.09                   704.42                   438.27                   494.48                   656.42                   683.03                   698.70                   702.08                   442.65                   499.50                   662.19                   689.01                   704.72                   708.05                   450.34                   508.06                   671.33                   697.99                   713.51                   716.79                   450.05                   507.64                   669.36                   695.51                   710.87                   714.10                   415.50                   468.15                   615.57                   638.80                   652.34                   655.28                   287.24                   317.42                   396.52                   408.18                   415.41                   417.14                   133.87                   142.18                   161.55                   164.06                   165.45                   165.87                   108.76                   115.46                   132.27                   134.53                   135.44                   135.64                   104.70                   110.74                   122.95                   124.23                   124.73                   124.77
22.000                   3.0000                   1.0000                   1.7000                   6000.0                   1000.0                   65.000                   478.47                   537.44                   705.69                   733.78                   750.09                   753.53                   476.35                   535.14                   704.24                   732.52                   749.19                   752.70                   480.65                   539.74                   708.44                   736.70                   753.29                   756.75                   488.03                   547.43                   715.31                   743.37                   759.75                   763.15                   487.60                   546.79                   713.37                   741.02                   757.35                   760.71                   451.41                   506.23                   660.91                   685.79                   700.20                   703.23                   312.87                   344.44                   428.15                   440.47                   447.88                   449.61                   145.98                   154.79                   175.78                   178.52                   179.99                   180.42                   118.04                   125.61                   145.39                   148.07                   149.07                   149.29                   112.82                   119.76                   134.67                   136.35                   137.00                   137.05
22.000                   3.0000                   1.0000                   1.7000                   6000.0                   1000.0                   70.000                   513.60                   572.76                   742.28                   772.70                   790.12                   793.63                   511.76                   570.86                   740.86                   771.33                   788.92                   792.46                   515.81                   575.02                   745.07                   775.71                   793.27                   796.79                   522.66                   581.87                   751.91                   782.69                   800.17                   803.66                   522.06                   581.07                   749.78                   780.18                   797.59                   801.05                   485.04                   540.80                   696.44                   721.96                   736.97                   740.09                   337.95                   370.34                   454.76                   466.99                   474.40                   476.20                   157.64                   166.17                   185.62                   188.08                   189.50                   189.94                   125.70                   132.12                   146.52                   148.22                   148.97                   149.17                   118.85                   124.28                   134.34                   135.29                   135.68                   135.74
22.000                   3.0000                   1.0000                   1.7000                   6000.0                   1000.0                   75.000                   548.02                   607.14                   779.59                   812.19                   830.51                   834.07                   546.45                   605.61                   778.12                   810.64                   828.95                   832.51                   550.25                   609.36                   782.43                   815.23                   833.57                   837.12                   556.55                   615.43                   789.37                   822.55                   840.92                   844.46                   555.78                   614.47                   787.03                   819.88                   838.15                   841.69                   518.13                   574.51                   731.32                   757.88                   773.56                   776.76                   362.87                   396.05                   481.54                   493.78                   501.23                   503.07                   169.17                   177.41                   195.57                   197.83                   199.22                   199.66                   133.05                   138.35                   148.18                   149.11                   149.68                   149.86                   124.52                   128.53                   134.40                   134.76                   134.95                   135.01