% Model:              batchmodel_COIL_N_22_COIL_kr_2.25_COIL_kh_3_COIL_kturn_1.1_FUNZ_freq_6000_FUNZ_I_eff_2500.mph
% Version:            COMSOL 5.6.0.280
% Date:               Feb 2 2022, 23:58
% Table:              Tabella 1 - GRIGLIA_T
% COIL_N                 COIL_kr                  COIL_kh                  COIL_kturn               FUNZ_freq                FUNZ_I_eff               Time (s)                 Temperatura (degC), Punto: (0, 0)Temperatura (degC), Punto: (15, 0)Temperatura (degC), Punto: (27.483, 0)Temperatura (degC), Punto: (28.742, 0)Temperatura (degC), Punto: (29.497, 0)Temperatura (degC), Punto: (29.748, 0)Temperatura (degC), Punto: (0, 62.5)Temperatura (degC), Punto: (15, 62.5)Temperatura (degC), Punto: (27.483, 62.5)Temperatura (degC), Punto: (28.742, 62.5)Temperatura (degC), Punto: (29.497, 62.5)Temperatura (degC), Punto: (29.748, 62.5)Temperatura (degC), Punto: (0, 125)Temperatura (degC), Punto: (15, 125)Temperatura (degC), Punto: (27.483, 125)Temperatura (degC), Punto: (28.742, 125)Temperatura (degC), Punto: (29.497, 125)Temperatura (degC), Punto: (29.748, 125)Temperatura (degC), Punto: (0, 187.5)Temperatura (degC), Punto: (15, 187.5)Temperatura (degC), Punto: (27.483, 187.5)Temperatura (degC), Punto: (28.742, 187.5)Temperatura (degC), Punto: (29.497, 187.5)Temperatura (degC), Punto: (29.748, 187.5)Temperatura (degC), Punto: (0, 250)Temperatura (degC), Punto: (15, 250)Temperatura (degC), Punto: (27.483, 250)Temperatura (degC), Punto: (28.742, 250)Temperatura (degC), Punto: (29.497, 250)Temperatura (degC), Punto: (29.748, 250)Temperatura (degC), Punto: (0, 312.5)Temperatura (degC), Punto: (15, 312.5)Temperatura (degC), Punto: (27.483, 312.5)Temperatura (degC), Punto: (28.742, 312.5)Temperatura (degC), Punto: (29.497, 312.5)Temperatura (degC), Punto: (29.748, 312.5)Temperatura (degC), Punto: (0, 375)Temperatura (degC), Punto: (15, 375)Temperatura (degC), Punto: (27.483, 375)Temperatura (degC), Punto: (28.742, 375)Temperatura (degC), Punto: (29.497, 375)Temperatura (degC), Punto: (29.748, 375)Temperatura (degC), Punto: (0, 437.5)Temperatura (degC), Punto: (15, 437.5)Temperatura (degC), Punto: (27.483, 437.5)Temperatura (degC), Punto: (28.742, 437.5)Temperatura (degC), Punto: (29.497, 437.5)Temperatura (degC), Punto: (29.748, 437.5)Temperatura (degC), Punto: (0, 468.75)Temperatura (degC), Punto: (15, 468.75)Temperatura (degC), Punto: (27.483, 468.75)Temperatura (degC), Punto: (28.742, 468.75)Temperatura (degC), Punto: (29.497, 468.75)Temperatura (degC), Punto: (29.748, 468.75)Temperatura (degC), Punto: (0, 492.19)Temperatura (degC), Punto: (15, 492.19)Temperatura (degC), Punto: (27.483, 492.19)Temperatura (degC), Punto: (28.742, 492.19)Temperatura (degC), Punto: (29.497, 492.19)Temperatura (degC), Punto: (29.748, 492.19)
22.000                   2.2500                   3.0000                   1.1000                   6000.0                   2500.0                   0.0000                   20.000                   20.000                   20.000                   20.000                   20.047                   20.154                   20.000                   20.000                   20.000                   20.000                   20.047                   20.154                   20.000                   20.000                   20.000                   20.000                   20.047                   20.154                   20.000                   20.000                   20.000                   20.000                   20.047                   20.154                   20.000                   20.000                   20.000                   20.000                   20.047                   20.154                   20.000                   20.000                   20.000                   20.000                   20.047                   20.154                   20.000                   20.000                   20.000                   20.000                   20.047                   20.154                   20.000                   20.000                   20.000                   20.000                   20.047                   20.155                   20.000                   20.000                   20.000                   20.000                   20.049                   20.157                   20.000                   20.000                   20.000                   20.000                   20.050                   20.160
22.000                   2.2500                   3.0000                   1.1000                   6000.0                   2500.0                   5.0000                   25.606                   43.769                   142.82                   161.45                   173.35                   176.53                   25.582                   43.738                   142.79                   161.41                   173.30                   176.48                   25.585                   43.759                   142.85                   161.48                   173.39                   176.56                   25.584                   43.767                   142.88                   161.53                   173.44                   176.62                   25.588                   43.773                   142.93                   161.58                   173.50                   176.69                   25.598                   43.832                   143.30                   162.01                   173.97                   177.16                   25.606                   43.865                   143.47                   162.20                   174.20                   177.41                   25.648                   44.051                   144.59                   163.53                   175.61                   178.82                   25.757                   44.321                   145.62                   164.69                   176.86                   180.10                   28.005                   49.653                   151.92                   170.12                   181.70                   184.79
22.000                   2.2500                   3.0000                   1.1000                   6000.0                   2500.0                   10.000                   55.737                   99.099                   237.01                   259.20                   272.99                   276.46                   55.703                   99.061                   236.96                   259.14                   272.94                   276.40                   55.724                   99.135                   237.28                   259.51                   273.34                   276.81                   55.715                   99.114                   237.15                   259.36                   273.17                   276.63                   55.743                   99.187                   237.41                   259.65                   273.47                   276.94                   55.832                   99.425                   238.17                   260.49                   274.36                   277.83                   55.809                   99.265                   236.63                   258.56                   272.28                   275.72                   56.160                   100.14                   240.25                   262.82                   276.85                   280.34                   56.822                   100.99                   241.45                   264.06                   278.10                   281.60                   62.895                   110.49                   247.34                   268.05                   280.87                   284.11
22.000                   2.2500                   3.0000                   1.1000                   6000.0                   2500.0                   15.000                   107.69                   165.32                   328.88                   355.23                   371.32                   375.16                   107.66                   165.27                   328.86                   355.23                   371.34                   375.18                   107.72                   165.44                   329.36                   355.77                   371.90                   375.74                   107.66                   165.29                   328.84                   355.18                   371.26                   375.09                   107.76                   165.49                   329.25                   355.62                   371.71                   375.54                   107.97                   165.89                   330.24                   356.65                   372.76                   376.59                   107.70                   165.01                   326.19                   352.16                   368.11                   371.87                   108.68                   166.89                   331.46                   357.86                   373.94                   377.78                   110.12                   168.33                   333.20                   359.71                   375.86                   379.69                   118.55                   178.42                   332.22                   355.25                   369.28                   372.67
22.000                   2.2500                   3.0000                   1.1000                   6000.0                   2500.0                   20.000                   171.54                   235.82                   424.03                   455.10                   473.36                   477.56                   171.51                   235.78                   423.93                   454.98                   473.28                   477.49                   171.63                   236.01                   424.17                   455.17                   473.39                   477.58                   171.46                   235.71                   423.61                   454.59                   472.79                   476.99                   171.63                   235.92                   423.42                   454.25                   472.37                   476.54                   171.88                   236.18                   423.49                   454.29                   472.41                   476.57                   171.03                   234.02                   414.00                   443.48                   461.15                   465.08                   172.86                   237.12                   422.72                   452.93                   470.75                   474.86                   174.95                   239.10                   426.23                   457.05                   475.22                   479.39                   183.48                   246.71                   412.63                   437.98                   453.07                   456.64
22.000                   2.2500                   3.0000                   1.1000                   6000.0                   2500.0                   25.000                   236.06                   306.74                   516.31                   550.49                   570.24                   574.45                   236.03                   306.68                   516.13                   550.28                   570.02                   574.23                   236.19                   306.90                   516.56                   550.83                   570.64                   574.86                   235.96                   306.62                   516.38                   550.69                   570.53                   574.76                   236.09                   306.62                   515.67                   549.87                   569.65                   573.86                   236.18                   306.50                   515.08                   549.30                   569.11                   573.34                   234.52                   303.22                   506.28                   539.75                   559.18                   563.41                   237.17                   307.27                   515.32                   549.68                   569.58                   573.83                   239.44                   309.29                   516.52                   550.36                   569.92                   574.10                   246.42                   313.66                   493.58                   521.02                   537.20                   540.77
22.000                   2.2500                   3.0000                   1.1000                   6000.0                   2500.0                   30.000                   300.05                   376.22                   595.72                   630.24                   649.59                   653.35                   300.01                   376.07                   594.81                   629.07                   648.21                   651.96                   300.23                   376.40                   596.57                   631.30                   650.76                   654.56                   300.05                   376.39                   597.81                   632.95                   652.62                   656.45                   299.98                   375.91                   595.37                   629.95                   649.31                   653.08                   299.82                   375.37                   593.59                   628.04                   647.39                   651.20                   297.37                   371.24                   580.18                   610.66                   627.28                   630.79                   300.66                   376.02                   594.42                   629.17                   648.06                   651.76                   302.69                   377.67                   595.46                   629.81                   648.91                   652.68                   307.57                   379.71                   569.96                   597.70                   613.55                   616.80
22.000                   2.2500                   3.0000                   1.1000                   6000.0                   2500.0                   35.000                   362.46                   441.88                   674.70                   715.79                   739.20                   743.95                   362.37                   441.59                   673.82                   714.87                   738.26                   743.02                   362.71                   442.12                   675.17                   716.30                   739.73                   744.49                   362.76                   442.61                   677.18                   718.48                   742.00                   746.77                   362.28                   441.44                   674.04                   715.16                   738.58                   743.34                   361.88                   440.54                   671.52                   712.58                   735.98                   740.73                   358.86                   435.83                   659.85                   700.09                   723.25                   727.97                   362.58                   441.07                   671.78                   712.83                   736.20                   740.95                   364.12                   442.23                   671.76                   712.01                   734.93                   739.59                   366.89                   442.78                   643.60                   675.37                   693.72                   697.54
22.000                   2.2500                   3.0000                   1.1000                   6000.0                   2500.0                   40.000                   421.23                   502.79                   750.27                   799.30                   827.00                   832.33                   421.10                   502.45                   749.45                   798.30                   825.86                   831.19                   421.58                   503.12                   750.56                   799.63                   827.27                   832.59                   421.95                   503.97                   752.46                   801.78                   829.51                   834.84                   421.01                   502.33                   749.51                   798.49                   826.11                   831.44                   420.50                   501.38                   747.37                   796.01                   823.45                   828.78                   417.23                   496.84                   740.53                   788.82                   816.12                   821.43                   421.05                   501.78                   747.97                   796.88                   824.60                   829.97                   421.98                   502.04                   743.07                   789.63                   816.05                   821.21                   423.94                   501.26                   707.56                   741.20                   760.64                   764.60
22.000                   2.2500                   3.0000                   1.1000                   6000.0                   2500.0                   45.000                   474.42                   557.53                   828.51                   883.08                   911.39                   916.53                   474.27                   557.20                   827.48                   881.88                   910.09                   915.24                   474.87                   557.92                   828.54                   883.04                   911.28                   916.42                   475.44                   558.88                   830.49                   885.10                   913.34                   918.48                   474.24                   557.15                   827.67                   882.17                   910.42                   915.57                   473.73                   556.30                   825.50                   879.78                   907.94                   913.09                   470.52                   552.28                   819.29                   873.37                   901.51                   906.68                   474.16                   556.69                   827.02                   881.67                   910.05                   915.24                   474.18                   555.38                   815.40                   867.43                   894.78                   899.84                   475.24                   552.23                   760.04                   796.14                   816.44                   820.42
22.000                   2.2500                   3.0000                   1.1000                   6000.0                   2500.0                   50.000                   524.75                   608.96                   909.32                   965.48                   992.22                   996.78                   524.61                   608.64                   908.03                   964.08                   990.80                   995.37                   525.30                   609.37                   908.91                   964.84                   991.50                   996.06                   526.01                   610.36                   910.81                   966.65                   993.23                   997.76                   524.65                   608.69                   908.35                   964.43                   991.15                   995.72                   524.17                   607.96                   906.09                   962.18                   988.90                   993.47                   521.14                   604.46                   898.64                   954.22                   980.95                   985.59                   524.52                   608.37                   908.64                   965.04                   991.85                   996.42                   523.43                   605.24                   890.19                   944.80                   971.25                   975.87                   523.32                   599.06                   810.07                   849.38                   870.30                   874.21
22.000                   2.2500                   3.0000                   1.1000                   6000.0                   2500.0                   55.000                   572.03                   655.71                   970.65                   1018.4                   1038.2                   1041.1                   571.90                   655.35                   967.43                   1014.9                   1034.9                   1037.9                   572.63                   656.04                   967.53                   1014.8                   1034.7                   1037.8                   573.40                   656.93                   966.43                   1012.9                   1032.7                   1035.7                   572.01                   655.47                   967.70                   1015.2                   1035.2                   1038.2                   571.58                   654.79                   964.04                   1011.3                   1031.6                   1034.7                   568.81                   651.70                   957.89                   1005.5                   1026.5                   1029.9                   571.96                   656.16                   1015.4                   1065.7                   1080.8                   1082.4                   569.54                   650.41                   948.87                   997.16                   1019.2                   1022.8                   567.57                   640.65                   857.74                   895.41                   914.85                   918.38
22.000                   2.2500                   3.0000                   1.1000                   6000.0                   2500.0                   60.000                   614.75                   697.04                   1034.9                   1071.9                   1082.1                   1082.9                   614.53                   695.63                   987.96                   1021.8                   1035.3                   1037.2                   615.27                   696.74                   1011.3                   1047.8                   1059.8                   1061.1                   615.92                   696.45                   975.31                   1007.5                   1021.5                   1023.7                   614.73                   696.42                   1018.9                   1056.4                   1068.0                   1069.1                   614.26                   694.94                   985.52                   1020.6                   1034.8                   1036.9                   611.80                   692.16                   979.18                   1014.6                   1029.6                   1031.8                   614.97                   698.83                   1064.3                   1095.6                   1103.0                   1103.2                   611.10                   690.24                   1005.0                   1046.0                   1059.9                   1061.6                   606.99                   676.53                   893.21                   926.22                   942.88                   945.86
22.000                   2.2500                   3.0000                   1.1000                   6000.0                   2500.0                   65.000                   651.26                   732.99                   1068.0                   1095.4                   1101.0                   1100.8                   650.73                   728.97                   999.51                   1024.9                   1034.6                   1035.8                   651.54                   731.46                   1041.4                   1069.3                   1076.6                   1077.0                   651.84                   728.44                   976.91                   1000.4                   1011.0                   1012.7                   651.11                   731.50                   1051.0                   1079.4                   1086.3                   1086.5                   650.40                   727.74                   993.53                   1020.3                   1031.0                   1032.6                   648.25                   725.09                   985.95                   1012.4                   1023.6                   1025.2                   651.66                   734.97                   1080.0                   1101.7                   1106.0                   1105.8                   646.77                   724.73                   1046.5                   1079.3                   1087.8                   1088.3                   640.63                   706.20                   919.12                   947.80                   962.18                   964.72
22.000                   2.2500                   3.0000                   1.1000                   6000.0                   2500.0                   70.000                   683.29                   765.76                   1078.4                   1097.0                   1100.5                   1100.2                   682.29                   758.22                   1010.6                   1031.4                   1038.7                   1039.5                   683.21                   762.63                   1059.8                   1080.6                   1085.5                   1085.5                   683.01                   756.01                   981.57                   1000.6                   1009.1                   1010.4                   682.93                   763.09                   1067.1                   1087.4                   1091.8                   1091.7                   681.84                   756.07                   998.54                   1019.7                   1028.2                   1029.4                   680.02                   753.43                   990.36                   1010.7                   1019.2                   1020.4                   683.70                   767.09                   1080.8                   1098.9                   1102.4                   1102.0                   678.24                   755.92                   1070.9                   1093.1                   1098.0                   1097.9                   670.26                   731.75                   941.04                   966.35                   979.04                   981.24
22.000                   2.2500                   3.0000                   1.1000                   6000.0                   2500.0                   75.000                   708.26                   798.80                   1080.2                   1094.5                   1096.9                   1096.5                   706.83                   787.61                   1023.3                   1041.0                   1046.8                   1047.2                   707.78                   794.18                   1068.3                   1084.8                   1088.3                   1088.1                   707.16                   783.71                   992.49                   1008.5                   1015.4                   1016.3                   707.63                   795.04                   1073.2                   1089.1                   1092.2                   1091.9                   706.24                   784.20                   1007.9                   1025.6                   1032.3                   1033.0                   704.78                   781.68                   1000.5                   1017.2                   1023.8                   1024.6                   708.45                   798.67                   1079.3                   1094.5                   1097.3                   1096.9                   703.28                   787.58                   1079.9                   1096.7                   1100.0                   1099.6                   694.33                   755.17                   959.48                   981.82                   992.87                   994.74