% Model:              batchmodel_COIL_N_22_COIL_kr_3_COIL_kh_1_COIL_kturn_1.7_FUNZ_freq_10000_FUNZ_I_eff_2500.mph
% Version:            COMSOL 5.6.0.280
% Date:               Feb 3 2022, 04:35
% Table:              Tabella 1 - GRIGLIA_T
% COIL_N                 COIL_kr                  COIL_kh                  COIL_kturn               FUNZ_freq                FUNZ_I_eff               Time (s)                 Temperatura (degC), Punto: (0, 0)Temperatura (degC), Punto: (15, 0)Temperatura (degC), Punto: (28.051, 0)Temperatura (degC), Punto: (29.025, 0)Temperatura (degC), Punto: (29.61, 0)Temperatura (degC), Punto: (29.805, 0)Temperatura (degC), Punto: (0, 62.5)Temperatura (degC), Punto: (15, 62.5)Temperatura (degC), Punto: (28.051, 62.5)Temperatura (degC), Punto: (29.025, 62.5)Temperatura (degC), Punto: (29.61, 62.5)Temperatura (degC), Punto: (29.805, 62.5)Temperatura (degC), Punto: (0, 125)Temperatura (degC), Punto: (15, 125)Temperatura (degC), Punto: (28.051, 125)Temperatura (degC), Punto: (29.025, 125)Temperatura (degC), Punto: (29.61, 125)Temperatura (degC), Punto: (29.805, 125)Temperatura (degC), Punto: (0, 187.5)Temperatura (degC), Punto: (15, 187.5)Temperatura (degC), Punto: (28.051, 187.5)Temperatura (degC), Punto: (29.025, 187.5)Temperatura (degC), Punto: (29.61, 187.5)Temperatura (degC), Punto: (29.805, 187.5)Temperatura (degC), Punto: (0, 250)Temperatura (degC), Punto: (15, 250)Temperatura (degC), Punto: (28.051, 250)Temperatura (degC), Punto: (29.025, 250)Temperatura (degC), Punto: (29.61, 250)Temperatura (degC), Punto: (29.805, 250)Temperatura (degC), Punto: (0, 312.5)Temperatura (degC), Punto: (15, 312.5)Temperatura (degC), Punto: (28.051, 312.5)Temperatura (degC), Punto: (29.025, 312.5)Temperatura (degC), Punto: (29.61, 312.5)Temperatura (degC), Punto: (29.805, 312.5)Temperatura (degC), Punto: (0, 375)Temperatura (degC), Punto: (15, 375)Temperatura (degC), Punto: (28.051, 375)Temperatura (degC), Punto: (29.025, 375)Temperatura (degC), Punto: (29.61, 375)Temperatura (degC), Punto: (29.805, 375)Temperatura (degC), Punto: (0, 437.5)Temperatura (degC), Punto: (15, 437.5)Temperatura (degC), Punto: (28.051, 437.5)Temperatura (degC), Punto: (29.025, 437.5)Temperatura (degC), Punto: (29.61, 437.5)Temperatura (degC), Punto: (29.805, 437.5)Temperatura (degC), Punto: (0, 468.75)Temperatura (degC), Punto: (15, 468.75)Temperatura (degC), Punto: (28.051, 468.75)Temperatura (degC), Punto: (29.025, 468.75)Temperatura (degC), Punto: (29.61, 468.75)Temperatura (degC), Punto: (29.805, 468.75)Temperatura (degC), Punto: (0, 492.19)Temperatura (degC), Punto: (15, 492.19)Temperatura (degC), Punto: (28.051, 492.19)Temperatura (degC), Punto: (29.025, 492.19)Temperatura (degC), Punto: (29.61, 492.19)Temperatura (degC), Punto: (29.805, 492.19)
22.000                   3.0000                   1.0000                   1.7000                   10000                    2500.0                   0.0000                   20.000                   20.000                   20.000                   20.001                   20.269                   20.594                   20.000                   20.000                   20.000                   20.001                   20.269                   20.594                   20.000                   20.000                   20.000                   20.001                   20.269                   20.594                   20.000                   20.000                   20.000                   20.001                   20.269                   20.594                   20.000                   20.000                   20.000                   20.001                   20.268                   20.594                   20.000                   20.000                   20.000                   20.001                   20.259                   20.577                   20.000                   20.000                   20.000                   20.000                   20.137                   20.366                   20.000                   20.000                   20.000                   20.000                   20.013                   20.089                   20.000                   20.000                   20.000                   20.000                   20.004                   20.038                   20.000                   20.000                   20.000                   20.000                   20.001                   20.017
22.000                   3.0000                   1.0000                   1.7000                   10000                    2500.0                   5.0000                   36.372                   101.96                   560.04                   648.37                   695.89                   705.34                   36.209                   102.05                   563.11                   652.67                   700.70                   710.20                   36.192                   101.83                   560.12                   648.80                   696.42                   705.92                   36.310                   102.29                   561.96                   650.81                   698.60                   708.07                   36.578                   103.62                   568.54                   658.39                   706.92                   716.51                   35.570                   99.059                   536.17                   619.11                   664.49                   673.55                   29.674                   69.120                   312.98                   352.11                   375.80                   381.20                   22.612                   33.020                   93.737                   100.72                   104.89                   106.16                   21.249                   26.008                   51.069                   54.176                   56.044                   56.627                   22.036                   26.871                   45.822                   47.914                   49.140                   49.528
22.000                   3.0000                   1.0000                   1.7000                   10000                    2500.0                   10.000                   137.35                   274.49                   863.14                   945.98                   982.01                   988.12                   137.37                   274.59                   866.59                   955.93                   995.05                   1001.7                   137.01                   274.25                   864.17                   945.92                   981.08                   987.04                   137.62                   275.11                   848.02                   928.53                   964.45                   970.67                   138.56                   278.51                   1107.0                   1183.4                   1202.2                   1204.0                   133.33                   267.18                   874.06                   970.53                   1011.0                   1017.7                   95.125                   186.36                   552.82                   605.81                   635.26                   641.32                   41.159                   65.919                   138.96                   146.50                   151.15                   152.54                   30.463                   41.798                   73.774                   76.977                   78.945                   79.579                   30.589                   39.739                   59.914                   61.532                   62.496                   62.810
22.000                   3.0000                   1.0000                   1.7000                   10000                    2500.0                   15.000                   270.59                   423.76                   902.22                   946.25                   966.35                   969.91                   270.23                   420.71                   900.65                   951.41                   975.08                   979.28                   270.31                   424.73                   918.79                   959.99                   978.30                   981.56                   271.03                   423.61                   896.91                   941.82                   962.56                   966.26                   272.74                   434.58                   1164.0                   1194.7                   1201.1                   1201.2                   264.40                   418.48                   973.40                   1021.8                   1038.8                   1041.2                   194.49                   306.14                   698.96                   755.50                   787.05                   793.26                   72.134                   101.31                   178.92                   186.96                   191.93                   193.39                   45.900                   59.080                   92.194                   95.462                   97.475                   98.121                   40.706                   49.171                   67.224                   68.790                   69.742                   70.056
22.000                   3.0000                   1.0000                   1.7000                   10000                    2500.0                   20.000                   388.25                   535.92                   986.06                   1017.2                   1029.4                   1031.3                   387.06                   530.89                   967.24                   1001.7                   1016.0                   1018.3                   387.98                   536.92                   1007.5                   1039.8                   1050.7                   1052.0                   388.38                   535.34                   984.29                   1015.9                   1028.0                   1029.8                   390.52                   547.95                   1147.3                   1167.0                   1170.6                   1170.3                   381.74                   532.33                   1045.6                   1077.9                   1086.9                   1087.7                   291.93                   407.73                   797.24                   856.06                   886.13                   891.76                   107.64                   138.99                   221.68                   230.24                   235.52                   237.03                   63.175                   76.912                   110.98                   114.34                   116.41                   117.07                   51.377                   59.478                   77.159                   78.727                   79.681                   79.996
22.000                   3.0000                   1.0000                   1.7000                   10000                    2500.0                   25.000                   481.71                   619.89                   1076.6                   1098.0                   1102.9                   1103.0                   480.12                   614.87                   1062.5                   1086.6                   1092.7                   1093.1                   481.37                   620.44                   1084.4                   1104.7                   1109.2                   1109.2                   481.46                   619.12                   1076.0                   1097.5                   1102.5                   1102.6                   483.48                   628.92                   1128.1                   1143.0                   1145.5                   1145.1                   475.35                   615.96                   1090.0                   1110.0                   1114.4                   1114.3                   376.53                   489.49                   875.67                   930.04                   956.74                   961.55                   145.02                   178.08                   265.60                   274.75                   280.38                   281.96                   81.546                   95.654                   130.77                   134.25                   136.40                   137.09                   63.006                   71.040                   88.761                   90.344                   91.309                   91.627
22.000                   3.0000                   1.0000                   1.7000                   10000                    2500.0                   30.000                   559.71                   687.61                   1115.8                   1128.6                   1130.6                   1130.2                   558.09                   683.48                   1110.3                   1124.2                   1126.5                   1126.1                   559.34                   687.96                   1117.5                   1130.2                   1132.1                   1131.7                   559.21                   686.89                   1115.7                   1128.6                   1130.7                   1130.3                   560.89                   693.47                   1129.0                   1140.3                   1141.8                   1141.3                   553.50                   683.13                   1115.1                   1128.2                   1130.3                   1129.9                   450.10                   558.81                   929.11                   973.29                   994.62                   998.41                   182.86                   217.34                   309.56                   319.27                   325.25                   326.88                   100.72                   115.21                   151.59                   155.23                   157.46                   158.17                   75.532                   83.611                   101.53                   103.14                   104.12                   104.45
22.000                   3.0000                   1.0000                   1.7000                   10000                    2500.0                   35.000                   622.52                   742.26                   1135.8                   1144.7                   1145.5                   1144.9                   621.14                   739.17                   1133.1                   1142.3                   1143.3                   1142.7                   622.21                   742.72                   1136.2                   1145.1                   1145.8                   1145.2                   621.95                   741.89                   1135.5                   1144.5                   1145.3                   1144.7                   623.22                   746.12                   1139.7                   1148.2                   1148.8                   1148.2                   616.68                   737.22                   1131.7                   1141.0                   1142.0                   1141.4                   513.24                   617.07                   977.94                   1012.3                   1026.9                   1029.3                   220.35                   256.12                   352.58                   362.81                   369.09                   370.77                   120.71                   135.67                   173.44                   177.22                   179.55                   180.28                   89.097                   97.270                   115.47                   117.11                   118.11                   118.44
22.000                   3.0000                   1.0000                   1.7000                   10000                    2500.0                   40.000                   669.50                   795.88                   1151.6                   1158.2                   1158.3                   1157.6                   668.34                   792.95                   1149.9                   1156.7                   1156.9                   1156.1                   669.20                   795.98                   1151.6                   1158.3                   1158.4                   1157.6                   668.89                   795.11                   1151.2                   1157.9                   1158.0                   1157.3                   669.83                   798.17                   1152.9                   1159.4                   1159.5                   1158.7                   664.20                   788.40                   1145.8                   1152.8                   1153.0                   1152.3                   565.86                   665.48                   1037.0                   1063.9                   1072.7                   1073.6                   256.50                   293.35                   393.39                   404.04                   410.55                   412.25                   141.57                   157.02                   196.12                   200.05                   202.47                   203.23                   103.86                   112.16                   130.70                   132.38                   133.40                   133.73
22.000                   3.0000                   1.0000                   1.7000                   10000                    2500.0                   45.000                   707.85                   849.97                   1167.0                   1172.0                   1171.6                   1170.7                   706.79                   847.35                   1165.9                   1171.0                   1170.6                   1169.8                   707.47                   849.74                   1167.0                   1171.9                   1171.5                   1170.7                   707.15                   848.84                   1166.6                   1171.6                   1171.2                   1170.4                   707.83                   850.93                   1167.3                   1172.2                   1171.8                   1170.9                   702.91                   839.99                   1159.8                   1165.0                   1164.7                   1163.9                   612.42                   708.82                   1083.8                   1103.1                   1107.5                   1107.5                   291.58                   329.37                   432.54                   443.54                   450.24                   451.96                   162.83                   178.74                   219.17                   223.24                   225.75                   226.53                   119.29                   127.75                   146.66                   148.36                   149.40                   149.74
22.000                   3.0000                   1.0000                   1.7000                   10000                    2500.0                   50.000                   737.62                   903.70                   1183.3                   1187.1                   1186.2                   1185.3                   736.48                   901.85                   1182.6                   1186.4                   1185.6                   1184.6                   737.04                   903.45                   1183.2                   1187.0                   1186.1                   1185.2                   736.72                   902.64                   1182.9                   1186.7                   1185.8                   1184.9                   737.26                   903.85                   1183.1                   1186.9                   1186.0                   1185.1                   732.53                   892.03                   1174.4                   1178.3                   1177.6                   1176.7                   652.85                   747.35                   1105.6                   1118.6                   1120.7                   1120.3                   325.39                   364.02                   469.80                   481.09                   487.94                   489.68                   184.40                   200.75                   242.49                   246.71                   249.32                   250.11                   135.39                   144.02                   163.32                   165.06                   166.11                   166.46
22.000                   3.0000                   1.0000                   1.7000                   10000                    2500.0                   55.000                   777.91                   954.54                   1202.2                   1205.2                   1204.0                   1203.0                   776.89                   953.26                   1201.7                   1204.7                   1203.6                   1202.6                   777.59                   954.30                   1202.1                   1205.1                   1204.0                   1203.0                   777.03                   953.59                   1201.8                   1204.8                   1203.7                   1202.7                   777.66                   954.28                   1201.8                   1204.8                   1203.6                   1202.6                   768.28                   941.23                   1191.1                   1194.2                   1193.1                   1192.1                   685.52                   785.97                   1115.2                   1124.5                   1125.5                   1125.0                   357.33                   396.59                   504.42                   515.98                   522.97                   524.72                   206.10                   222.88                   265.96                   270.33                   273.02                   273.84                   152.27                   161.08                   180.76                   182.53                   183.61                   183.96
22.000                   3.0000                   1.0000                   1.7000                   10000                    2500.0                   60.000                   832.17                   1003.5                   1223.3                   1225.6                   1224.1                   1223.1                   831.37                   1002.6                   1222.9                   1225.3                   1223.8                   1222.7                   832.09                   1003.3                   1223.2                   1225.5                   1224.1                   1223.0                   831.38                   1002.7                   1222.9                   1225.2                   1223.8                   1222.7                   831.96                   1003.0                   1222.7                   1225.1                   1223.6                   1222.5                   817.88                   988.49                   1209.7                   1212.0                   1210.7                   1209.6                   713.07                   825.03                   1122.1                   1128.8                   1129.1                   1128.4                   387.94                   427.65                   537.12                   548.91                   556.02                   557.76                   227.79                   245.00                   289.32                   293.84                   296.62                   297.46                   169.56                   178.54                   198.57                   200.37                   201.47                   201.83
22.000                   3.0000                   1.0000                   1.7000                   10000                    2500.0                   65.000                   896.51                   1050.5                   1246.2                   1248.0                   1246.2                   1245.1                   895.99                   1050.0                   1246.0                   1247.7                   1246.0                   1244.8                   896.59                   1050.4                   1246.2                   1247.9                   1246.2                   1245.1                   895.84                   1049.9                   1245.9                   1247.6                   1245.9                   1244.8                   896.24                   1049.9                   1245.6                   1247.3                   1245.6                   1244.4                   878.14                   1033.8                   1230.0                   1231.8                   1230.1                   1229.0                   737.35                   863.96                   1127.6                   1132.5                   1132.3                   1131.5                   417.23                   457.22                   567.87                   579.83                   587.03                   588.78                   249.41                   267.03                   312.54                   317.19                   320.05                   320.91                   187.20                   196.33                   216.70                   218.54                   219.65                   220.01
22.000                   3.0000                   1.0000                   1.7000                   10000                    2500.0                   70.000                   962.09                   1095.0                   1270.8                   1272.0                   1270.0                   1268.8                   961.76                   1094.7                   1270.6                   1271.8                   1269.8                   1268.6                   962.20                   1094.9                   1270.8                   1271.9                   1269.9                   1268.7                   961.53                   1094.5                   1270.5                   1271.7                   1269.7                   1268.5                   961.67                   1094.3                   1270.1                   1271.2                   1269.2                   1268.0                   941.56                   1076.5                   1252.2                   1253.4                   1251.5                   1250.3                   762.17                   901.27                   1133.3                   1136.9                   1136.3                   1135.5                   444.90                   485.02                   596.16                   608.20                   615.45                   617.19                   270.88                   288.88                   335.48                   340.25                   343.19                   344.06                   205.12                   214.39                   235.10                   236.96                   238.10                   238.46
22.000                   3.0000                   1.0000                   1.7000                   10000                    2500.0                   75.000                   1016.3                   1134.5                   1295.5                   1296.1                   1293.8                   1292.5                   1016.0                   1134.2                   1295.3                   1295.9                   1293.7                   1292.4                   1016.4                   1134.4                   1295.4                   1296.1                   1293.8                   1292.5                   1015.8                   1134.0                   1295.2                   1295.8                   1293.5                   1292.2                   1015.7                   1133.7                   1294.6                   1295.2                   1293.0                   1291.7                   994.32                   1114.1                   1274.8                   1275.5                   1273.4                   1272.1                   800.15                   933.91                   1140.0                   1142.8                   1141.8                   1140.9                   469.27                   509.21                   619.99                   632.10                   639.37                   641.09                   291.60                   309.91                   357.47                   362.34                   365.34                   366.22                   223.19                   232.60                   253.62                   255.50                   256.65                   257.02