% Model:              batchmodel_COIL_N_22_COIL_kr_1.5_COIL_kh_3_COIL_kturn_1.7_FUNZ_freq_2000_FUNZ_I_eff_2500.mph
% Version:            COMSOL 5.6.0.280
% Date:               Feb 2 2022, 16:22
% Table:              Tabella 1 - GRIGLIA_T
% COIL_N                 COIL_kr                  COIL_kh                  COIL_kturn               FUNZ_freq                FUNZ_I_eff               Time (s)                 Temperatura (degC), Punto: (0, 0)Temperatura (degC), Punto: (15, 0)Temperatura (degC), Punto: (25.641, 0)Temperatura (degC), Punto: (27.821, 0)Temperatura (degC), Punto: (29.128, 0)Temperatura (degC), Punto: (29.564, 0)Temperatura (degC), Punto: (0, 62.5)Temperatura (degC), Punto: (15, 62.5)Temperatura (degC), Punto: (25.641, 62.5)Temperatura (degC), Punto: (27.821, 62.5)Temperatura (degC), Punto: (29.128, 62.5)Temperatura (degC), Punto: (29.564, 62.5)Temperatura (degC), Punto: (0, 125)Temperatura (degC), Punto: (15, 125)Temperatura (degC), Punto: (25.641, 125)Temperatura (degC), Punto: (27.821, 125)Temperatura (degC), Punto: (29.128, 125)Temperatura (degC), Punto: (29.564, 125)Temperatura (degC), Punto: (0, 187.5)Temperatura (degC), Punto: (15, 187.5)Temperatura (degC), Punto: (25.641, 187.5)Temperatura (degC), Punto: (27.821, 187.5)Temperatura (degC), Punto: (29.128, 187.5)Temperatura (degC), Punto: (29.564, 187.5)Temperatura (degC), Punto: (0, 250)Temperatura (degC), Punto: (15, 250)Temperatura (degC), Punto: (25.641, 250)Temperatura (degC), Punto: (27.821, 250)Temperatura (degC), Punto: (29.128, 250)Temperatura (degC), Punto: (29.564, 250)Temperatura (degC), Punto: (0, 312.5)Temperatura (degC), Punto: (15, 312.5)Temperatura (degC), Punto: (25.641, 312.5)Temperatura (degC), Punto: (27.821, 312.5)Temperatura (degC), Punto: (29.128, 312.5)Temperatura (degC), Punto: (29.564, 312.5)Temperatura (degC), Punto: (0, 375)Temperatura (degC), Punto: (15, 375)Temperatura (degC), Punto: (25.641, 375)Temperatura (degC), Punto: (27.821, 375)Temperatura (degC), Punto: (29.128, 375)Temperatura (degC), Punto: (29.564, 375)Temperatura (degC), Punto: (0, 437.5)Temperatura (degC), Punto: (15, 437.5)Temperatura (degC), Punto: (25.641, 437.5)Temperatura (degC), Punto: (27.821, 437.5)Temperatura (degC), Punto: (29.128, 437.5)Temperatura (degC), Punto: (29.564, 437.5)Temperatura (degC), Punto: (0, 468.75)Temperatura (degC), Punto: (15, 468.75)Temperatura (degC), Punto: (25.641, 468.75)Temperatura (degC), Punto: (27.821, 468.75)Temperatura (degC), Punto: (29.128, 468.75)Temperatura (degC), Punto: (29.564, 468.75)Temperatura (degC), Punto: (0, 492.19)Temperatura (degC), Punto: (15, 492.19)Temperatura (degC), Punto: (25.641, 492.19)Temperatura (degC), Punto: (27.821, 492.19)Temperatura (degC), Punto: (29.128, 492.19)Temperatura (degC), Punto: (29.564, 492.19)
22.000                   1.5000                   3.0000                   1.7000                   2000.0                   2500.0                   0.0000                   20.000                   20.000                   20.000                   20.000                   20.001                   20.017                   20.000                   20.000                   20.000                   20.000                   20.004                   20.027                   20.000                   20.000                   20.000                   20.000                   20.003                   20.023                   20.000                   20.000                   20.000                   20.000                   20.002                   20.020                   20.000                   20.000                   20.000                   20.000                   20.005                   20.027                   20.000                   20.000                   20.000                   20.000                   20.001                   20.017                   20.000                   20.000                   20.000                   20.000                   20.004                   20.026                   20.000                   20.000                   20.000                   20.000                   20.004                   20.025                   20.000                   20.000                   20.000                   20.000                   20.005                   20.027                   20.000                   20.000                   20.000                   20.000                   20.001                   20.017
22.000                   1.5000                   3.0000                   1.7000                   2000.0                   2500.0                   5.0000                   20.434                   21.809                   28.434                   31.953                   34.832                   35.856                   20.716                   23.515                   37.443                   43.893                   48.670                   50.232                   20.684                   23.497                   36.846                   42.625                   46.840                   48.220                   20.658                   23.408                   36.085                   41.351                   45.121                   46.361                   20.739                   23.661                   37.900                   44.463                   49.341                   50.926                   20.411                   21.767                   28.982                   32.973                   36.099                   37.179                   20.688                   23.268                   35.868                   41.959                   46.538                   48.056                   20.587                   22.821                   34.453                   40.287                   44.703                   46.168                   20.665                   23.464                   37.126                   43.513                   48.286                   49.844                   18.211                   18.177                   25.485                   29.525                   32.530                   33.561
22.000                   1.5000                   3.0000                   1.7000                   2000.0                   2500.0                   10.000                   25.169                   31.381                   48.743                   54.122                   57.601                   58.720                   27.444                   37.064                   64.054                   72.204                   77.241                   78.823                   26.638                   34.970                   57.302                   64.214                   68.743                   70.160                   26.213                   33.880                   54.091                   60.403                   64.563                   65.868                   27.482                   37.186                   64.449                   72.600                   77.813                   79.429                   25.350                   32.024                   51.164                   56.453                   59.953                   61.088                   27.112                   36.242                   61.977                   69.527                   74.465                   76.011                   26.428                   34.836                   58.752                   66.278                   71.174                   72.701                   26.713                   35.981                   63.043                   70.607                   75.479                   77.051                   23.247                   29.960                   47.521                   52.480                   55.722                   56.783
22.000                   1.5000                   3.0000                   1.7000                   2000.0                   2500.0                   15.000                   35.398                   45.150                   67.024                   72.772                   76.336                   77.471                   40.726                   54.992                   87.804                   96.356                   101.48                   103.06                   38.599                   50.806                   77.772                   85.186                   89.846                   91.277                   37.519                   48.748                   73.052                   79.763                   84.047                   85.368                   41.000                   55.542                   88.612                   97.303                   102.66                   104.29                   36.327                   47.063                   71.596                   77.343                   80.946                   82.094                   39.780                   53.278                   84.203                   92.151                   97.204                   98.759                   38.303                   50.870                   79.564                   87.531                   92.546                   94.081                   39.178                   53.034                   86.219                   94.408                   99.271                   100.85                   35.967                   47.218                   69.227                   74.408                   77.666                   78.723
22.000                   1.5000                   3.0000                   1.7000                   2000.0                   2500.0                   20.000                   48.397                   60.422                   84.718                   90.680                   94.358                   95.515                   56.895                   74.059                   109.74                   118.56                   123.82                   125.42                   53.462                   68.223                   97.945                   105.63                   110.39                   111.83                   51.752                   65.438                   92.471                   99.440                   103.81                   105.15                   57.661                   75.476                   112.29                   121.37                   126.87                   128.51                   50.288                   63.660                   90.974                   97.004                   100.75                   101.93                   55.218                   71.403                   105.06                   113.26                   118.38                   119.95                   52.948                   68.137                   99.571                   107.78                   112.87                   114.42                   54.698                   71.489                   107.81                   116.52                   121.52                   123.11                   51.955                   66.075                   90.605                   95.917                   99.176                   100.23
22.000                   1.5000                   3.0000                   1.7000                   2000.0                   2500.0                   25.000                   64.406                   77.293                   102.37                   108.51                   112.29                   113.46                   75.362                   93.443                   129.81                   138.75                   144.13                   145.73                   71.025                   86.738                   117.52                   125.34                   130.16                   131.61                   68.911                   83.574                   111.70                   118.82                   123.27                   124.61                   76.954                   96.030                   134.28                   143.55                   149.17                   150.80                   67.188                   81.502                   109.51                   115.75                   119.61                   120.80                   73.031                   90.152                   124.87                   133.29                   138.46                   140.02                   70.131                   86.264                   118.71                   127.13                   132.32                   133.88                   72.903                   90.680                   127.71                   136.69                   141.81                   143.40                   70.536                   85.632                   110.74                   116.07                   119.36                   120.42
22.000                   1.5000                   3.0000                   1.7000                   2000.0                   2500.0                   30.000                   80.603                   94.264                   120.02                   126.35                   130.22                   131.41                   93.969                   112.84                   149.77                   158.82                   164.31                   165.91                   88.755                   105.32                   137.05                   145.02                   149.88                   151.34                   86.251                   101.80                   130.90                   138.18                   142.70                   144.05                   96.408                   116.62                   156.15                   165.60                   171.33                   172.97                   84.269                   99.420                   128.00                   134.44                   138.40                   139.61                   90.990                   108.94                   144.62                   153.24                   158.47                   160.03                   87.469                   104.44                   137.79                   146.43                   151.72                   153.29                   91.273                   109.91                   147.49                   156.75                   161.96                   163.57                   89.274                   105.23                   130.80                   136.13                   139.47                   140.53
22.000                   1.5000                   3.0000                   1.7000                   2000.0                   2500.0                   35.000                   97.847                   111.83                   138.00                   144.45                   148.39                   149.60                   112.92                   132.06                   169.16                   178.28                   183.80                   185.40                   107.08                   123.97                   156.19                   164.27                   169.18                   170.63                   104.39                   120.32                   149.99                   157.35                   161.93                   163.29                   116.21                   136.88                   176.97                   186.51                   192.27                   193.89                   102.17                   117.65                   146.59                   153.11                   157.13                   158.35                   109.29                   127.52                   163.55                   172.26                   177.53                   179.08                   105.28                   122.52                   156.13                   164.88                   170.24                   171.81                   110.08                   129.03                   166.94                   176.24                   181.55                   183.16                   108.28                   124.46                   149.97                   155.30                   158.65                   159.71
22.000                   1.5000                   3.0000                   1.7000                   2000.0                   2500.0                   40.000                   115.13                   129.42                   155.99                   162.56                   166.58                   167.80                   131.88                   151.27                   188.54                   197.71                   203.27                   204.85                   125.42                   142.63                   175.33                   183.50                   188.45                   189.91                   122.56                   138.86                   169.07                   176.52                   181.16                   182.52                   136.03                   157.13                   197.75                   207.37                   213.16                   214.76                   120.09                   135.89                   165.18                   171.79                   175.87                   177.09                   127.61                   146.09                   182.46                   191.24                   196.55                   198.10                   123.10                   140.58                   174.44                   183.31                   188.73                   190.30                   128.90                   148.15                   186.38                   195.72                   201.12                   202.73                   127.30                   143.69                   169.12                   174.44                   177.80                   178.86
22.000                   1.5000                   3.0000                   1.7000                   2000.0                   2500.0                   45.000                   132.79                   147.21                   174.07                   180.73                   184.82                   186.05                   150.01                   169.38                   206.63                   215.82                   221.39                   222.97                   143.33                   160.57                   193.34                   201.56                   206.55                   208.00                   140.76                   157.20                   187.77                   195.35                   200.02                   201.39                   155.03                   176.24                   217.25                   226.89                   232.68                   234.28                   137.90                   153.79                   183.43                   190.17                   194.29                   195.52                   145.35                   163.91                   200.63                   209.41                   214.73                   216.28                   140.63                   158.15                   192.16                   201.10                   206.57                   208.14                   147.25                   166.65                   205.48                   214.97                   220.43                   222.02                   145.72                   162.07                   187.64                   193.01                   196.36                   197.40
22.000                   1.5000                   3.0000                   1.7000                   2000.0                   2500.0                   50.000                   150.46                   165.01                   192.15                   198.90                   203.06                   204.30                   168.13                   187.48                   224.72                   233.92                   239.51                   241.09                   161.23                   178.50                   211.34                   219.61                   224.64                   226.09                   158.96                   175.54                   206.46                   214.17                   218.89                   220.26                   174.02                   195.34                   236.75                   246.41                   252.19                   253.80                   155.70                   171.68                   201.68                   208.55                   212.71                   213.94                   163.10                   181.74                   218.80                   227.57                   232.91                   234.45                   158.15                   175.71                   209.87                   218.90                   224.42                   225.99                   165.60                   185.14                   224.58                   234.22                   239.74                   241.32                   164.13                   180.46                   206.15                   211.58                   214.91                   215.94
22.000                   1.5000                   3.0000                   1.7000                   2000.0                   2500.0                   55.000                   168.13                   182.81                   210.23                   217.06                   221.30                   222.55                   186.26                   205.58                   242.80                   252.02                   257.64                   259.21                   179.14                   196.43                   229.35                   237.67                   242.73                   244.18                   177.16                   193.87                   225.15                   233.00                   237.76                   239.12                   193.02                   214.44                   256.24                   265.93                   271.71                   273.32                   173.51                   189.57                   219.93                   226.94                   231.13                   232.36                   180.85                   199.56                   236.97                   245.73                   251.10                   252.62                   175.68                   193.27                   227.58                   236.69                   242.26                   243.83                   183.94                   203.63                   243.68                   253.46                   259.05                   260.61                   182.55                   198.85                   224.67                   230.15                   233.47                   234.48
22.000                   1.5000                   3.0000                   1.7000                   2000.0                   2500.0                   60.000                   185.77                   200.58                   228.29                   235.22                   239.51                   240.78                   204.33                   223.62                   260.84                   270.08                   275.71                   277.28                   197.01                   214.33                   247.33                   255.70                   260.80                   262.25                   195.32                   212.16                   243.79                   251.76                   256.56                   257.93                   211.94                   233.48                   275.66                   285.38                   291.16                   292.76                   191.27                   207.42                   238.14                   245.28                   249.52                   250.75                   198.54                   217.33                   255.08                   263.84                   269.22                   270.74                   193.16                   210.80                   245.27                   254.45                   260.07                   261.63                   202.24                   222.07                   262.70                   272.63                   278.27                   279.83                   200.92                   217.19                   243.14                   248.67                   251.97                   252.97
22.000                   1.5000                   3.0000                   1.7000                   2000.0                   2500.0                   65.000                   203.03                   217.99                   246.05                   253.06                   257.41                   258.68                   221.52                   240.82                   278.11                   287.40                   293.05                   294.60                   214.27                   231.69                   264.94                   273.36                   278.49                   279.93                   212.76                   229.70                   261.54                   269.57                   274.41                   275.77                   229.75                   251.36                   293.83                   303.59                   309.39                   310.99                   208.42                   224.68                   255.77                   262.99                   267.29                   268.52                   215.35                   234.20                   272.13                   281.03                   286.45                   287.95                   210.01                   227.76                   262.48                   271.71                   277.34                   278.90                   219.68                   239.63                   280.50                   290.51                   296.19                   297.73                   218.50                   234.81                   260.91                   266.40                   269.64                   270.63
22.000                   1.5000                   3.0000                   1.7000                   2000.0                   2500.0                   70.000                   220.30                   235.39                   263.82                   270.91                   275.30                   276.58                   238.71                   258.02                   295.38                   304.71                   310.39                   311.92                   231.53                   249.04                   282.54                   291.01                   296.18                   297.62                   230.20                   247.23                   279.29                   287.38                   292.26                   293.61                   247.57                   269.23                   312.00                   321.81                   327.62                   329.23                   225.57                   241.94                   273.40                   280.71                   285.05                   286.29                   232.16                   251.06                   289.19                   298.21                   303.67                   305.17                   226.87                   244.72                   279.69                   288.98                   294.61                   296.17                   237.13                   257.18                   298.30                   308.39                   314.11                   315.62                   236.08                   252.43                   278.68                   284.13                   287.32                   288.28
22.000                   1.5000                   3.0000                   1.7000                   2000.0                   2500.0                   75.000                   237.56                   252.80                   281.59                   288.76                   293.20                   294.48                   255.90                   275.21                   312.65                   322.03                   327.72                   329.24                   248.79                   266.40                   300.14                   308.67                   313.87                   315.30                   247.64                   264.76                   297.05                   305.19                   310.11                   311.46                   265.38                   287.11                   330.17                   340.03                   345.85                   347.47                   242.71                   259.20                   291.02                   298.42                   302.82                   304.07                   248.97                   267.92                   306.24                   315.40                   320.89                   322.39                   243.73                   261.68                   296.91                   306.24                   311.88                   313.44                   254.57                   274.73                   316.09                   326.26                   332.03                   333.52                   253.66                   270.05                   296.45                   301.86                   304.99                   305.93