% Model:              batchmodel_COIL_N_22_COIL_kr_2.25_COIL_kh_1_COIL_kturn_1.7_FUNZ_freq_6000_FUNZ_I_eff_1000.mph
% Version:            COMSOL 5.6.0.280
% Date:               Feb 2 2022, 19:13
% Table:              Tabella 1 - GRIGLIA_T
% COIL_N                 COIL_kr                  COIL_kh                  COIL_kturn               FUNZ_freq                FUNZ_I_eff               Time (s)                 Temperatura (degC), Punto: (0, 0)Temperatura (degC), Punto: (15, 0)Temperatura (degC), Punto: (27.483, 0)Temperatura (degC), Punto: (28.742, 0)Temperatura (degC), Punto: (29.497, 0)Temperatura (degC), Punto: (29.748, 0)Temperatura (degC), Punto: (0, 62.5)Temperatura (degC), Punto: (15, 62.5)Temperatura (degC), Punto: (27.483, 62.5)Temperatura (degC), Punto: (28.742, 62.5)Temperatura (degC), Punto: (29.497, 62.5)Temperatura (degC), Punto: (29.748, 62.5)Temperatura (degC), Punto: (0, 125)Temperatura (degC), Punto: (15, 125)Temperatura (degC), Punto: (27.483, 125)Temperatura (degC), Punto: (28.742, 125)Temperatura (degC), Punto: (29.497, 125)Temperatura (degC), Punto: (29.748, 125)Temperatura (degC), Punto: (0, 187.5)Temperatura (degC), Punto: (15, 187.5)Temperatura (degC), Punto: (27.483, 187.5)Temperatura (degC), Punto: (28.742, 187.5)Temperatura (degC), Punto: (29.497, 187.5)Temperatura (degC), Punto: (29.748, 187.5)Temperatura (degC), Punto: (0, 250)Temperatura (degC), Punto: (15, 250)Temperatura (degC), Punto: (27.483, 250)Temperatura (degC), Punto: (28.742, 250)Temperatura (degC), Punto: (29.497, 250)Temperatura (degC), Punto: (29.748, 250)Temperatura (degC), Punto: (0, 312.5)Temperatura (degC), Punto: (15, 312.5)Temperatura (degC), Punto: (27.483, 312.5)Temperatura (degC), Punto: (28.742, 312.5)Temperatura (degC), Punto: (29.497, 312.5)Temperatura (degC), Punto: (29.748, 312.5)Temperatura (degC), Punto: (0, 375)Temperatura (degC), Punto: (15, 375)Temperatura (degC), Punto: (27.483, 375)Temperatura (degC), Punto: (28.742, 375)Temperatura (degC), Punto: (29.497, 375)Temperatura (degC), Punto: (29.748, 375)Temperatura (degC), Punto: (0, 437.5)Temperatura (degC), Punto: (15, 437.5)Temperatura (degC), Punto: (27.483, 437.5)Temperatura (degC), Punto: (28.742, 437.5)Temperatura (degC), Punto: (29.497, 437.5)Temperatura (degC), Punto: (29.748, 437.5)Temperatura (degC), Punto: (0, 468.75)Temperatura (degC), Punto: (15, 468.75)Temperatura (degC), Punto: (27.483, 468.75)Temperatura (degC), Punto: (28.742, 468.75)Temperatura (degC), Punto: (29.497, 468.75)Temperatura (degC), Punto: (29.748, 468.75)Temperatura (degC), Punto: (0, 492.19)Temperatura (degC), Punto: (15, 492.19)Temperatura (degC), Punto: (27.483, 492.19)Temperatura (degC), Punto: (28.742, 492.19)Temperatura (degC), Punto: (29.497, 492.19)Temperatura (degC), Punto: (29.748, 492.19)
22.000                   2.2500                   1.0000                   1.7000                   6000.0                   1000.0                   0.0000                   20.000                   20.000                   20.000                   20.000                   20.020                   20.095                   20.000                   20.000                   20.000                   20.000                   20.020                   20.095                   20.000                   20.000                   20.000                   20.000                   20.020                   20.095                   20.000                   20.000                   20.000                   20.000                   20.020                   20.095                   20.000                   20.000                   20.000                   20.000                   20.020                   20.095                   20.000                   20.000                   20.000                   20.000                   20.020                   20.094                   20.000                   20.000                   20.000                   20.000                   20.006                   20.054                   20.000                   20.000                   20.000                   20.000                   20.000                   20.004                   20.000                   20.000                   20.000                   20.000                   20.000                   20.001                   20.000                   20.000                   20.000                   20.000                   20.000                   20.000
22.000                   2.2500                   1.0000                   1.7000                   6000.0                   1000.0                   5.0000                   23.975                   35.051                   92.859                   103.41                   110.18                   112.18                   23.981                   35.114                   93.057                   103.62                   110.38                   112.37                   23.992                   35.144                   92.988                   103.50                   110.26                   112.25                   23.983                   35.104                   92.868                   103.40                   110.17                   112.16                   23.973                   35.067                   92.770                   103.29                   110.06                   112.05                   23.937                   34.999                   92.360                   102.77                   109.45                   111.42                   22.361                   28.942                   61.431                   67.096                   70.790                   71.959                   20.588                   22.175                   27.874                   28.603                   29.037                   29.194                   20.294                   21.007                   23.237                   23.462                   23.606                   23.654                   20.400                   21.252                   23.047                   23.112                   23.133                   23.147
22.000                   2.2500                   1.0000                   1.7000                   6000.0                   1000.0                   10.000                   43.296                   67.677                   145.46                   157.29                   164.76                   166.87                   43.356                   67.827                   146.04                   158.05                   165.45                   167.55                   43.398                   67.867                   145.51                   157.35                   164.80                   166.90                   43.371                   67.804                   145.36                   157.20                   164.65                   166.75                   43.327                   67.736                   145.51                   157.42                   164.82                   166.92                   42.945                   67.098                   144.23                   156.01                   163.30                   165.36                   33.352                   47.059                   88.801                   95.031                   99.019                   100.22                   22.710                   25.155                   31.911                   32.730                   33.157                   33.310                   21.288                   22.288                   24.325                   24.537                   24.656                   24.689                   21.227                   22.112                   23.897                   24.150                   24.174                   24.189
22.000                   2.2500                   1.0000                   1.7000                   6000.0                   1000.0                   15.000                   73.963                   106.63                   195.95                   209.05                   217.08                   219.29                   74.115                   106.91                   196.84                   210.06                   218.04                   220.24                   74.082                   106.69                   194.90                   207.81                   215.86                   218.07                   74.046                   106.63                   194.95                   207.87                   215.92                   218.12                   74.013                   106.67                   195.71                   208.75                   216.77                   218.97                   72.963                   105.26                   193.66                   206.43                   214.33                   216.50                   50.626                   68.655                   116.14                   122.83                   127.09                   128.36                   26.077                   29.321                   39.031                   40.151                   40.557                   40.701                   22.773                   23.925                   26.309                   26.578                   26.710                   26.745                   22.485                   23.756                   27.753                   28.267                   28.387                   28.419
22.000                   2.2500                   1.0000                   1.7000                   6000.0                   1000.0                   20.000                   111.46                   148.41                   245.77                   259.97                   268.65                   270.96                   111.74                   148.86                   246.91                   261.22                   269.85                   272.16                   111.51                   148.29                   244.37                   258.37                   267.07                   269.38                   111.47                   148.25                   244.50                   258.53                   267.24                   269.56                   111.52                   148.46                   245.63                   259.79                   268.48                   270.79                   109.47                   145.95                   242.42                   256.16                   264.63                   266.90                   71.995                   92.326                   143.83                   151.00                   155.51                   156.87                   30.576                   34.468                   45.526                   46.776                   47.224                   47.377                   24.791                   26.140                   28.923                   29.216                   29.357                   29.393                   24.340                   26.140                   31.288                   31.842                   32.006                   32.045
22.000                   2.2500                   1.0000                   1.7000                   6000.0                   1000.0                   25.000                   151.81                   191.65                   296.76                   312.23                   321.67                   324.10                   152.21                   192.25                   298.06                   313.60                   323.06                   325.51                   151.78                   191.45                   295.53                   310.85                   320.34                   322.78                   151.72                   191.38                   295.64                   310.98                   320.47                   322.92                   151.86                   191.68                   296.62                   312.06                   321.53                   323.97                   148.51                   187.78                   291.51                   306.47                   315.67                   318.06                   95.384                   117.21                   172.15                   179.75                   184.49                   185.90                   36.106                   40.597                   52.970                   54.415                   54.942                   55.121                   27.422                   29.021                   32.306                   32.648                   32.820                   32.868                   26.721                   28.942                   34.695                   35.250                   35.416                   35.454
22.000                   2.2500                   1.0000                   1.7000                   6000.0                   1000.0                   30.000                   193.24                   235.71                   348.90                   365.72                   375.94                   378.48                   193.71                   236.38                   350.23                   367.12                   377.42                   379.98                   193.17                   235.50                   347.95                   364.68                   374.96                   377.53                   193.10                   235.43                   348.05                   364.80                   375.10                   377.66                   193.25                   235.70                   348.69                   365.48                   375.76                   378.32                   188.40                   230.16                   341.41                   357.70                   367.67                   370.17                   120.02                   143.12                   201.26                   209.29                   214.26                   215.72                   42.878                   47.936                   61.692                   63.346                   63.965                   64.171                   30.884                   32.739                   36.511                   36.907                   37.117                   37.180                   29.684                   32.222                   38.447                   39.004                   39.167                   39.203
22.000                   2.2500                   1.0000                   1.7000                   6000.0                   1000.0                   35.000                   235.15                   280.24                   401.80                   420.04                   431.02                   433.65                   235.65                   280.91                   403.09                   421.42                   432.52                   435.18                   235.06                   280.05                   401.13                   419.32                   430.40                   433.08                   235.00                   279.99                   401.27                   419.48                   430.58                   433.26                   235.11                   280.16                   401.47                   419.66                   430.74                   433.41                   228.62                   272.84                   391.95                   409.60                   420.33                   422.94                   145.38                   169.68                   230.92                   239.39                   244.60                   246.11                   50.516                   56.122                   71.325                   73.188                   73.904                   74.136                   34.938                   37.043                   41.278                   41.727                   41.978                   42.057                   33.046                   35.831                   42.497                   43.062                   43.225                   43.262
22.000                   2.2500                   1.0000                   1.7000                   6000.0                   1000.0                   40.000                   277.07                   324.76                   454.71                   474.35                   486.10                   488.82                   277.59                   325.43                   455.95                   475.72                   487.63                   490.37                   276.96                   324.60                   454.32                   473.96                   485.84                   488.63                   276.90                   324.55                   454.48                   474.16                   486.07                   488.86                   276.97                   324.62                   454.26                   473.85                   485.72                   488.51                   268.84                   315.52                   442.49                   461.49                   473.00                   475.71                   170.74                   196.24                   260.58                   269.49                   274.94                   276.50                   58.155                   64.308                   80.957                   83.030                   83.843                   84.101                   38.992                   41.348                   46.045                   46.547                   46.839                   46.934                   36.409                   39.440                   46.547                   47.121                   47.282                   47.320
22.000                   2.2500                   1.0000                   1.7000                   6000.0                   1000.0                   45.000                   318.57                   369.03                   508.58                   530.01                   542.75                   545.62                   319.07                   369.64                   509.60                   531.12                   543.97                   546.86                   318.46                   368.88                   508.29                   529.73                   542.55                   545.47                   318.40                   368.84                   508.40                   529.86                   542.70                   545.62                   318.39                   368.79                   508.03                   529.41                   542.22                   545.13                   308.41                   357.57                   492.75                   513.26                   525.54                   528.37                   196.65                   223.33                   291.14                   300.68                   306.55                   308.18                   65.653                   71.374                   85.752                   87.517                   88.310                   88.564                   42.853                   45.051                   49.413                   49.890                   50.172                   50.264                   38.971                   41.459                   46.825                   47.248                   47.383                   47.417
22.000                   2.2500                   1.0000                   1.7000                   6000.0                   1000.0                   50.000                   360.06                   413.28                   562.50                   585.74                   599.48                   602.51                   360.52                   413.82                   563.29                   586.58                   600.38                   603.42                   359.95                   413.15                   562.31                   585.55                   599.33                   602.38                   359.89                   413.11                   562.36                   585.61                   599.40                   602.45                   359.78                   412.94                   561.86                   585.05                   598.80                   601.85                   347.95                   399.59                   542.99                   565.02                   578.08                   581.01                   222.59                   250.45                   321.76                   331.94                   338.23                   339.93                   73.143                   78.379                   90.281                   91.711                   92.476                   92.725                   46.704                   48.721                   52.704                   53.152                   53.420                   53.510                   41.489                   43.390                   46.897                   47.159                   47.266                   47.297
22.000                   2.2500                   1.0000                   1.7000                   6000.0                   1000.0                   55.000                   400.37                   456.03                   613.31                   638.26                   652.98                   656.16                   400.79                   456.49                   613.87                   638.83                   653.57                   656.75                   400.25                   455.90                   613.22                   638.19                   652.93                   656.11                   400.20                   455.86                   613.22                   638.19                   652.93                   656.11                   400.01                   455.59                   612.64                   637.55                   652.26                   655.43                   386.60                   440.59                   591.68                   615.28                   629.17                   632.22                   248.56                   277.65                   352.62                   363.42                   370.11                   371.89                   80.759                   85.647                   95.992                   97.231                   97.987                   98.235                   50.549                   52.418                   56.135                   56.566                   56.828                   56.915                   43.965                   45.402                   47.595                   47.751                   47.840                   47.868
22.000                   2.2500                   1.0000                   1.7000                   6000.0                   1000.0                   60.000                   438.46                   495.91                   658.23                   684.69                   700.36                   703.67                   438.81                   496.26                   658.56                   685.01                   700.66                   703.97                   438.33                   495.78                   658.25                   684.79                   700.51                   703.82                   438.29                   495.75                   658.22                   684.75                   700.47                   703.77                   438.02                   495.40                   657.64                   684.11                   699.79                   703.09                   423.55                   479.62                   637.43                   662.70                   677.53                   680.69                   274.59                   305.00                   383.92                   395.34                   402.39                   404.22                   88.616                   93.413                   103.94                   105.27                   106.05                   106.30                   54.382                   56.165                   59.831                   60.269                   60.535                   60.623                   46.361                   47.571                   49.482                   49.635                   49.722                   49.749
22.000                   2.2500                   1.0000                   1.7000                   6000.0                   1000.0                   65.000                   476.55                   535.80                   703.15                   731.13                   747.74                   751.18                   476.83                   536.04                   703.25                   731.19                   747.74                   751.18                   476.41                   535.66                   703.28                   731.38                   748.09                   751.53                   476.37                   535.63                   703.21                   731.30                   748.00                   751.44                   476.03                   535.22                   702.64                   730.67                   747.32                   750.75                   460.50                   518.66                   683.18                   710.13                   725.89                   729.17                   300.63                   332.34                   415.22                   427.25                   434.66                   436.55                   96.474                   101.18                   111.89                   113.30                   114.11                   114.37                   58.215                   59.913                   63.526                   63.973                   64.243                   64.331                   48.757                   49.740                   51.369                   51.519                   51.604                   51.630
22.000                   2.2500                   1.0000                   1.7000                   6000.0                   1000.0                   70.000                   511.51                   571.23                   745.31                   775.82                   793.34                   796.87                   511.71                   571.35                   745.14                   775.58                   793.05                   796.57                   511.36                   571.10                   745.68                   776.41                   794.09                   797.62                   511.32                   571.06                   745.52                   776.21                   793.87                   797.40                   510.91                   570.58                   744.80                   775.44                   793.06                   796.59                   494.59                   553.41                   722.35                   751.59                   768.33                   771.72                   326.19                   359.11                   445.38                   457.93                   465.62                   467.54                   104.92                   109.74                   121.12                   122.64                   123.47                   123.74                   62.403                   64.098                   67.771                   68.230                   68.506                   68.596                   51.539                   52.484                   54.201                   54.368                   54.456                   54.483
22.000                   2.2500                   1.0000                   1.7000                   6000.0                   1000.0                   75.000                   545.38                   605.12                   786.50                   819.90                   838.33                   841.92                   545.50                   605.12                   786.05                   819.35                   837.73                   841.32                   545.22                   604.98                   787.17                   820.88                   839.55                   843.14                   545.19                   604.94                   786.89                   820.54                   839.17                   842.76                   544.71                   604.40                   785.97                   819.59                   838.19                   841.79                   527.68                   586.67                   759.25                   790.98                   808.72                   812.21                   351.58                   385.68                   475.13                   488.17                   496.12                   498.07                   113.56                   118.56                   130.78                   132.44                   133.29                   133.57                   66.715                   68.436                   72.205                   72.678                   72.963                   73.056                   54.454                   55.429                   57.361                   57.551                   57.644                   57.672