% Model:              batchmodel_COIL_N_22_COIL_kr_3_COIL_kh_3_COIL_kturn_1.4_FUNZ_freq_2000_FUNZ_I_eff_1000.mph
% Version:            COMSOL 5.6.0.280
% Date:               Feb 3 2022, 07:41
% Table:              Tabella 1 - GRIGLIA_T
% COIL_N                 COIL_kr                  COIL_kh                  COIL_kturn               FUNZ_freq                FUNZ_I_eff               Time (s)                 Temperatura (degC), Punto: (0, 0)Temperatura (degC), Punto: (15, 0)Temperatura (degC), Punto: (25.641, 0)Temperatura (degC), Punto: (27.821, 0)Temperatura (degC), Punto: (29.128, 0)Temperatura (degC), Punto: (29.564, 0)Temperatura (degC), Punto: (0, 62.5)Temperatura (degC), Punto: (15, 62.5)Temperatura (degC), Punto: (25.641, 62.5)Temperatura (degC), Punto: (27.821, 62.5)Temperatura (degC), Punto: (29.128, 62.5)Temperatura (degC), Punto: (29.564, 62.5)Temperatura (degC), Punto: (0, 125)Temperatura (degC), Punto: (15, 125)Temperatura (degC), Punto: (25.641, 125)Temperatura (degC), Punto: (27.821, 125)Temperatura (degC), Punto: (29.128, 125)Temperatura (degC), Punto: (29.564, 125)Temperatura (degC), Punto: (0, 187.5)Temperatura (degC), Punto: (15, 187.5)Temperatura (degC), Punto: (25.641, 187.5)Temperatura (degC), Punto: (27.821, 187.5)Temperatura (degC), Punto: (29.128, 187.5)Temperatura (degC), Punto: (29.564, 187.5)Temperatura (degC), Punto: (0, 250)Temperatura (degC), Punto: (15, 250)Temperatura (degC), Punto: (25.641, 250)Temperatura (degC), Punto: (27.821, 250)Temperatura (degC), Punto: (29.128, 250)Temperatura (degC), Punto: (29.564, 250)Temperatura (degC), Punto: (0, 312.5)Temperatura (degC), Punto: (15, 312.5)Temperatura (degC), Punto: (25.641, 312.5)Temperatura (degC), Punto: (27.821, 312.5)Temperatura (degC), Punto: (29.128, 312.5)Temperatura (degC), Punto: (29.564, 312.5)Temperatura (degC), Punto: (0, 375)Temperatura (degC), Punto: (15, 375)Temperatura (degC), Punto: (25.641, 375)Temperatura (degC), Punto: (27.821, 375)Temperatura (degC), Punto: (29.128, 375)Temperatura (degC), Punto: (29.564, 375)Temperatura (degC), Punto: (0, 437.5)Temperatura (degC), Punto: (15, 437.5)Temperatura (degC), Punto: (25.641, 437.5)Temperatura (degC), Punto: (27.821, 437.5)Temperatura (degC), Punto: (29.128, 437.5)Temperatura (degC), Punto: (29.564, 437.5)Temperatura (degC), Punto: (0, 468.75)Temperatura (degC), Punto: (15, 468.75)Temperatura (degC), Punto: (25.641, 468.75)Temperatura (degC), Punto: (27.821, 468.75)Temperatura (degC), Punto: (29.128, 468.75)Temperatura (degC), Punto: (29.564, 468.75)Temperatura (degC), Punto: (0, 492.19)Temperatura (degC), Punto: (15, 492.19)Temperatura (degC), Punto: (25.641, 492.19)Temperatura (degC), Punto: (27.821, 492.19)Temperatura (degC), Punto: (29.128, 492.19)Temperatura (degC), Punto: (29.564, 492.19)
22.000                   3.0000                   3.0000                   1.4000                   2000.0                   1000.0                   0.0000                   20.000                   20.000                   20.000                   20.000                   20.000                   20.006                   20.000                   20.000                   20.000                   20.000                   20.000                   20.006                   20.000                   20.000                   20.000                   20.000                   20.000                   20.006                   20.000                   20.000                   20.000                   20.000                   20.000                   20.006                   20.000                   20.000                   20.000                   20.000                   20.000                   20.006                   20.000                   20.000                   20.000                   20.000                   20.000                   20.006                   20.000                   20.000                   20.000                   20.000                   20.000                   20.006                   20.000                   20.000                   20.000                   20.000                   20.000                   20.006                   20.000                   20.000                   20.000                   20.000                   20.000                   20.005                   20.000                   20.000                   20.000                   20.000                   20.000                   20.002
22.000                   3.0000                   3.0000                   1.4000                   2000.0                   1000.0                   5.0000                   20.695                   22.148                   28.372                   30.726                   32.283                   32.786                   20.705                   22.179                   28.494                   30.884                   32.462                   32.974                   20.713                   22.206                   28.595                   31.013                   32.604                   33.121                   20.703                   22.175                   28.474                   30.855                   32.428                   32.937                   20.699                   22.159                   28.414                   30.780                   32.343                   32.848                   20.672                   22.089                   28.146                   30.409                   31.919                   32.409                   20.710                   22.197                   28.575                   30.993                   32.590                   33.110                   20.701                   22.177                   28.527                   30.949                   32.545                   33.061                   20.634                   21.979                   27.811                   30.041                   31.521                   31.995                   20.654                   21.783                   25.943                   27.509                   28.511                   28.837
22.000                   3.0000                   3.0000                   1.4000                   2000.0                   1000.0                   10.000                   23.681                   26.699                   35.070                   37.639                   39.275                   39.814                   23.729                   26.816                   35.455                   38.139                   39.850                   40.412                   23.770                   26.910                   35.720                   38.463                   40.211                   40.785                   23.724                   26.803                   35.400                   38.060                   39.752                   40.309                   23.702                   26.747                   35.202                   37.804                   39.457                   40.002                   23.552                   26.454                   34.436                   36.841                   38.403                   38.930                   23.751                   26.871                   35.619                   38.348                   40.099                   40.675                   23.682                   26.746                   35.277                   37.917                   39.582                   40.134                   23.287                   26.069                   33.893                   36.272                   37.772                   38.254                   22.782                   24.885                   30.748                   32.501                   33.560                   33.893
22.000                   3.0000                   3.0000                   1.4000                   2000.0                   1000.0                   15.000                   28.055                   31.962                   40.608                   43.057                   44.631                   45.157                   28.128                   32.092                   40.871                   43.355                   44.950                   45.481                   28.193                   32.198                   41.046                   43.541                   45.139                   45.671                   28.122                   32.080                   40.844                   43.325                   44.916                   45.446                   28.086                   32.015                   40.704                   43.164                   44.742                   45.268                   27.808                   31.607                   40.058                   42.467                   44.027                   44.551                   28.166                   32.162                   41.019                   43.528                   45.135                   45.667                   27.998                   31.927                   40.615                   43.073                   44.647                   45.170                   27.107                   30.627                   38.462                   40.673                   42.089                   42.562                   26.032                   28.726                   34.343                   35.820                   36.744                   37.051
22.000                   3.0000                   3.0000                   1.4000                   2000.0                   1000.0                   20.000                   32.979                   37.305                   46.178                   48.617                   50.178                   50.699                   33.056                   37.423                   46.379                   48.845                   50.415                   50.937                   33.123                   37.514                   46.485                   48.944                   50.510                   51.031                   33.050                   37.413                   46.365                   48.834                   50.404                   50.926                   32.999                   37.333                   46.203                   48.640                   50.199                   50.720                   32.650                   36.895                   45.677                   48.127                   49.690                   50.212                   33.081                   37.464                   46.435                   48.896                   50.471                   50.994                   32.762                   37.065                   45.888                   48.323                   49.875                   50.392                   31.380                   35.231                   43.162                   45.341                   46.739                   47.211                   29.985                   33.076                   38.946                   40.437                   41.320                   41.616
22.000                   3.0000                   3.0000                   1.4000                   2000.0                   1000.0                   25.000                   38.101                   42.686                   51.750                   54.210                   55.771                   56.292                   38.177                   42.789                   51.913                   54.403                   55.973                   56.494                   38.243                   42.865                   51.977                   54.456                   56.022                   56.541                   38.172                   42.781                   51.906                   54.403                   55.971                   56.492                   38.106                   42.688                   51.718                   54.167                   55.724                   56.245                   37.708                   42.239                   51.278                   53.771                   55.339                   55.859                   38.188                   42.804                   51.903                   54.371                   55.947                   56.469                   37.685                   42.203                   51.142                   53.593                   55.143                   55.660                   35.877                   39.937                   47.992                   50.182                   51.581                   52.052                   34.332                   37.765                   44.016                   45.589                   46.454                   46.743
22.000                   3.0000                   3.0000                   1.4000                   2000.0                   1000.0                   30.000                   43.461                   48.135                   57.300                   59.791                   61.362                   61.884                   43.541                   48.240                   57.455                   59.965                   61.539                   62.061                   43.610                   48.325                   57.561                   60.074                   61.654                   62.175                   43.542                   48.239                   57.451                   59.961                   61.536                   62.057                   43.464                   48.140                   57.298                   59.784                   61.352                   61.874                   43.045                   47.676                   56.812                   59.315                   60.893                   61.413                   43.564                   48.288                   57.558                   60.085                   61.682                   62.203                   42.795                   47.383                   56.388                   58.851                   60.404                   60.921                   40.821                   44.997                   53.217                   55.451                   56.857                   57.325                   39.554                   43.304                   49.949                   51.584                   52.429                   52.712
22.000                   3.0000                   3.0000                   1.4000                   2000.0                   1000.0                   35.000                   48.822                   53.585                   62.850                   65.372                   66.952                   67.476                   48.905                   53.691                   62.997                   65.526                   67.105                   67.627                   48.977                   53.785                   63.145                   65.692                   67.286                   67.809                   48.912                   53.697                   62.995                   65.519                   67.100                   67.623                   48.821                   53.593                   62.877                   65.401                   66.980                   67.504                   48.383                   53.114                   62.346                   64.860                   66.446                   66.966                   48.941                   53.772                   63.213                   65.799                   67.416                   67.936                   47.905                   52.563                   61.634                   64.109                   65.664                   66.182                   45.765                   50.058                   58.442                   60.720                   62.133                   62.598                   44.777                   48.843                   55.882                   57.580                   58.404                   58.681
22.000                   3.0000                   3.0000                   1.4000                   2000.0                   1000.0                   40.000                   54.182                   59.034                   68.400                   70.953                   72.543                   73.068                   54.269                   59.142                   68.539                   71.087                   72.672                   73.194                   54.344                   59.245                   68.729                   71.310                   72.918                   73.442                   54.282                   59.155                   68.540                   71.077                   72.664                   73.188                   54.179                   59.046                   68.457                   71.018                   72.608                   73.133                   53.720                   58.551                   67.880                   70.405                   72.000                   72.520                   54.317                   59.257                   68.868                   71.513                   73.150                   73.669                   53.015                   57.742                   66.879                   69.368                   70.925                   71.443                   50.710                   55.118                   63.667                   65.989                   67.409                   67.871                   49.999                   54.381                   61.815                   63.575                   64.379                   64.650
22.000                   3.0000                   3.0000                   1.4000                   2000.0                   1000.0                   45.000                   59.784                   64.682                   74.137                   76.712                   78.313                   78.839                   59.864                   64.779                   74.254                   76.822                   78.419                   78.944                   59.934                   64.874                   74.433                   77.032                   78.650                   79.176                   59.879                   64.794                   74.263                   76.823                   78.422                   78.947                   59.763                   64.672                   74.164                   76.744                   78.344                   78.871                   59.278                   64.145                   73.534                   76.074                   77.673                   78.194                   59.865                   64.842                   74.528                   77.196                   78.850                   79.373                   58.323                   63.074                   72.258                   74.763                   76.329                   76.849                   56.139                   60.604                   69.252                   71.596                   73.022                   73.482                   55.872                   60.382                   67.954                   69.736                   70.546                   70.815
22.000                   3.0000                   3.0000                   1.4000                   2000.0                   1000.0                   50.000                   65.386                   70.329                   79.874                   82.471                   84.083                   84.610                   65.459                   70.416                   79.970                   82.557                   84.166                   84.693                   65.524                   70.504                   80.137                   82.754                   84.382                   84.910                   65.477                   70.434                   79.985                   82.569                   84.179                   84.706                   65.346                   70.299                   79.870                   82.470                   84.081                   84.609                   64.836                   69.739                   79.188                   81.743                   83.346                   83.867                   65.412                   70.428                   80.189                   82.879                   84.549                   85.076                   63.632                   68.405                   77.637                   80.158                   81.733                   82.255                   61.569                   66.090                   74.838                   77.203                   78.635                   79.094                   61.745                   66.382                   74.093                   75.897                   76.713                   76.980
22.000                   3.0000                   3.0000                   1.4000                   2000.0                   1000.0                   55.000                   70.988                   75.977                   85.611                   88.229                   89.852                   90.381                   71.054                   76.052                   85.686                   88.292                   89.914                   90.443                   71.114                   76.133                   85.840                   88.476                   90.114                   90.644                   71.074                   76.074                   85.708                   88.315                   89.936                   90.464                   70.930                   75.925                   85.577                   88.196                   89.818                   90.347                   70.395                   75.332                   84.842                   87.411                   89.019                   89.541                   70.960                   76.014                   85.849                   88.561                   90.248                   90.780                   68.940                   73.737                   83.016                   85.553                   87.137                   87.661                   66.998                   71.576                   80.423                   82.810                   84.248                   84.706                   67.617                   72.382                   80.232                   82.058                   82.880                   83.145
22.000                   3.0000                   3.0000                   1.4000                   2000.0                   1000.0                   60.000                   76.590                   81.625                   91.348                   93.988                   95.622                   96.152                   76.649                   81.689                   91.401                   94.027                   95.661                   96.192                   76.704                   81.763                   91.544                   94.198                   95.845                   96.378                   76.671                   81.713                   91.431                   94.061                   95.693                   96.223                   76.513                   81.552                   91.283                   93.921                   95.554                   96.084                   75.953                   80.926                   90.496                   93.080                   94.692                   95.215                   76.508                   81.600                   91.509                   94.244                   95.947                   96.483                   74.249                   79.068                   88.394                   90.948                   92.541                   93.068                   72.428                   77.062                   86.009                   88.417                   89.861                   90.317                   73.490                   78.383                   86.372                   88.219                   89.047                   89.310
22.000                   3.0000                   3.0000                   1.4000                   2000.0                   1000.0                   65.000                   82.192                   87.273                   97.085                   99.746                   101.39                   101.92                   82.244                   87.326                   97.117                   99.762                   101.41                   101.94                   82.293                   87.392                   97.248                   99.920                   101.58                   102.11                   82.269                   87.353                   97.154                   99.807                   101.45                   101.98                   82.097                   87.178                   96.990                   99.647                   101.29                   101.82                   81.511                   86.520                   96.150                   98.749                   100.36                   100.89                   82.055                   87.186                   97.170                   99.927                   101.65                   102.19                   79.557                   84.400                   93.773                   96.343                   97.945                   98.474                   77.857                   82.547                   91.594                   94.023                   95.474                   95.929                   79.363                   84.383                   92.511                   94.379                   95.214                   95.475
22.000                   3.0000                   3.0000                   1.4000                   2000.0                   1000.0                   70.000                   87.677                   92.744                   102.53                   105.18                   106.83                   107.36                   87.728                   92.797                   102.57                   105.21                   106.86                   107.39                   87.775                   92.860                   102.69                   105.35                   107.01                   107.55                   87.751                   92.822                   102.60                   105.24                   106.89                   107.43                   87.569                   92.637                   102.42                   105.06                   106.71                   107.25                   87.000                   92.008                   101.64                   104.25                   105.87                   106.40                   87.473                   92.585                   102.51                   105.24                   106.95                   107.49                   84.767                   89.611                   98.990                   101.56                   103.16                   103.69                   82.666                   87.273                   96.160                   98.551                   100.00                   100.46                   83.516                   88.213                   95.871                   97.646                   98.487                   98.753
22.000                   3.0000                   3.0000                   1.4000                   2000.0                   1000.0                   75.000                   93.162                   98.216                   107.97                   110.61                   112.26                   112.80                   93.211                   98.269                   108.02                   110.65                   112.31                   112.84                   93.256                   98.328                   108.12                   110.78                   112.44                   112.98                   93.233                   98.292                   108.04                   110.68                   112.34                   112.87                   93.041                   98.095                   107.84                   110.48                   112.13                   112.67                   92.490                   97.497                   107.14                   109.74                   111.38                   111.91                   92.891                   97.983                   107.86                   110.56                   112.26                   112.80                   89.977                   94.822                   104.21                   106.77                   108.38                   108.92                   87.475                   91.999                   100.73                   103.08                   104.53                   104.99                   87.669                   92.043                   99.231                   100.91                   101.76                   102.03