% Model:              batchmodel_COIL_N_12_COIL_kr_1.5_COIL_kh_1.5_FUNZ_freq_6000_FUNZ_I_eff_1000.mph
% Version:            COMSOL 6.0.0.318
% Date:               Feb 8 2022, 18:15
% Table:              Tabella 1 - GRIGLIA_T
% COIL_N                 COIL_kr                  COIL_kh                  FUNZ_freq                FUNZ_I_eff               Time (s)                 Temperatura (degC), Point: (0, 0)Temperatura (degC), Point: (15, 0)Temperatura (degC), Point: (27.483, 0)Temperatura (degC), Point: (28.742, 0)Temperatura (degC), Point: (29.497, 0)Temperatura (degC), Point: (29.99, 0)Temperatura (degC), Point: (0, 62.5)Temperatura (degC), Point: (15, 62.5)Temperatura (degC), Point: (27.483, 62.5)Temperatura (degC), Point: (28.742, 62.5)Temperatura (degC), Point: (29.497, 62.5)Temperatura (degC), Point: (29.99, 62.5)Temperatura (degC), Point: (0, 125)Temperatura (degC), Point: (15, 125)Temperatura (degC), Point: (27.483, 125)Temperatura (degC), Point: (28.742, 125)Temperatura (degC), Point: (29.497, 125)Temperatura (degC), Point: (29.99, 125)Temperatura (degC), Point: (0, 187.5)Temperatura (degC), Point: (15, 187.5)Temperatura (degC), Point: (27.483, 187.5)Temperatura (degC), Point: (28.742, 187.5)Temperatura (degC), Point: (29.497, 187.5)Temperatura (degC), Point: (29.99, 187.5)Temperatura (degC), Point: (0, 250)Temperatura (degC), Point: (15, 250)Temperatura (degC), Point: (27.483, 250)Temperatura (degC), Point: (28.742, 250)Temperatura (degC), Point: (29.497, 250)Temperatura (degC), Point: (29.99, 250)Temperatura (degC), Point: (0, 312.5)Temperatura (degC), Point: (15, 312.5)Temperatura (degC), Point: (27.483, 312.5)Temperatura (degC), Point: (28.742, 312.5)Temperatura (degC), Point: (29.497, 312.5)Temperatura (degC), Point: (29.99, 312.5)Temperatura (degC), Point: (0, 375)Temperatura (degC), Point: (15, 375)Temperatura (degC), Point: (27.483, 375)Temperatura (degC), Point: (28.742, 375)Temperatura (degC), Point: (29.497, 375)Temperatura (degC), Point: (29.99, 375)Temperatura (degC), Point: (0, 437.5)Temperatura (degC), Point: (15, 437.5)Temperatura (degC), Point: (27.483, 437.5)Temperatura (degC), Point: (28.742, 437.5)Temperatura (degC), Point: (29.497, 437.5)Temperatura (degC), Point: (29.99, 437.5)Temperatura (degC), Point: (0, 468.75)Temperatura (degC), Point: (15, 468.75)Temperatura (degC), Point: (27.483, 468.75)Temperatura (degC), Point: (28.742, 468.75)Temperatura (degC), Point: (29.497, 468.75)Temperatura (degC), Point: (29.99, 468.75)Temperatura (degC), Point: (0, 492.19)Temperatura (degC), Point: (15, 492.19)Temperatura (degC), Point: (27.483, 492.19)Temperatura (degC), Point: (28.742, 492.19)Temperatura (degC), Point: (29.497, 492.19)Temperatura (degC), Point: (29.99, 492.19)
12.000                   1.5000                   1.5000                   6000.0                   1000.0                   0.0000                   20.000                   20.000                   20.000                   20.000                   20.001                   20.049                   20.000                   20.000                   20.000                   20.000                   20.001                   20.073                   20.000                   20.000                   20.000                   20.000                   20.003                   20.088                   20.000                   20.000                   20.000                   20.000                   20.001                   20.053                   20.000                   20.000                   20.000                   20.000                   20.001                   20.057                   20.000                   20.000                   20.000                   20.000                   20.003                   20.090                   20.000                   20.000                   20.000                   20.000                   20.001                   20.067                   20.000                   20.000                   20.000                   20.000                   20.001                   20.048                   20.000                   20.000                   20.000                   20.000                   20.002                   20.076                   20.000                   20.000                   20.000                   20.000                   20.002                   20.078
12.000                   1.5000                   1.5000                   6000.0                   1000.0                   5.0000                   20.687                   22.357                   31.656                   33.232                   34.223                   34.772                   20.963                   23.499                   38.553                   41.219                   42.922                   43.834                   21.106                   24.125                   42.587                   45.913                   48.050                   49.178                   20.746                   22.591                   33.023                   34.803                   35.925                   36.542                   20.789                   22.767                   34.100                   36.084                   37.353                   38.028                   21.135                   24.245                   43.324                   46.743                   48.928                   50.039                   20.903                   23.243                   36.902                   39.277                   40.774                   41.578                   20.683                   22.344                   31.617                   33.189                   34.179                   34.727                   20.981                   23.599                   39.338                   42.149                   43.949                   44.909                   21.193                   24.140                   40.659                   43.554                   45.408                   46.393
12.000                   1.5000                   1.5000                   6000.0                   1000.0                   10.000                   24.642                   28.574                   40.494                   42.209                   43.282                   43.857                   26.109                   31.869                   50.451                   53.241                   55.002                   55.911                   26.840                   33.585                   56.107                   59.594                   61.815                   62.937                   24.966                   29.281                   42.513                   44.425                   45.621                   46.257                   25.199                   29.792                   44.014                   46.089                   47.394                   48.079                   26.990                   33.925                   57.157                   60.749                   63.032                   64.171                   25.799                   31.154                   48.170                   50.690                   52.272                   53.095                   24.624                   28.543                   40.427                   42.135                   43.205                   43.778                   26.190                   32.090                   51.398                   54.332                   56.190                   57.144                   27.205                   33.786                   54.079                   57.063                   58.950                   59.917
12.000                   1.5000                   1.5000                   6000.0                   1000.0                   15.000                   30.875                   36.189                   49.681                   51.517                   52.657                   53.262                   33.741                   41.287                   61.572                   64.452                   66.256                   67.173                   35.164                   43.935                   68.427                   72.030                   74.305                   75.434                   31.521                   37.315                   52.170                   54.204                   55.469                   56.135                   31.971                   38.096                   53.900                   56.064                   57.405                   58.102                   35.444                   44.431                   69.617                   73.330                   75.675                   76.836                   33.146                   40.212                   58.959                   61.590                   63.233                   64.077                   30.826                   36.118                   49.527                   51.347                   52.478                   53.078                   33.885                   41.579                   62.576                   65.600                   67.499                   68.461                   35.951                   44.482                   66.379                   69.419                   71.326                   72.292
12.000                   1.5000                   1.5000                   6000.0                   1000.0                   20.000                   38.632                   44.690                   59.078                   60.974                   62.147                   62.765                   42.637                   51.071                   72.304                   75.239                   77.071                   77.996                   44.645                   54.412                   79.982                   83.648                   85.955                   87.092                   39.543                   46.118                   61.897                   63.995                   65.295                   65.976                   40.159                   47.074                   63.742                   65.941                   67.289                   67.976                   45.010                   54.994                   81.240                   85.015                   87.393                   88.561                   41.816                   49.750                   69.473                   72.166                   73.841                   74.696                   38.517                   44.533                   58.785                   60.658                   61.816                   62.427                   42.843                   51.417                   73.351                   76.428                   78.357                   79.326                   45.919                   55.380                   78.081                   81.149                   83.069                   84.034
12.000                   1.5000                   1.5000                   6000.0                   1000.0                   25.000                   46.707                   53.390                   68.546                   70.495                   71.697                   72.326                   51.757                   60.935                   82.994                   85.980                   87.840                   88.772                   54.294                   64.892                   91.397                   95.123                   97.461                   98.605                   47.855                   55.083                   71.640                   73.792                   75.123                   75.815                   48.629                   56.205                   73.601                   75.825                   77.174                   77.847                   54.742                   65.556                   92.723                   96.557                   98.966                   100.14                   50.724                   59.386                   79.947                   82.695                   84.402                   85.266                   46.526                   53.154                   68.128                   70.049                   71.231                   71.851                   52.027                   61.336                   84.082                   87.212                   89.168                   90.144                   56.055                   66.282                   89.664                   92.759                   94.692                   95.658
12.000                   1.5000                   1.5000                   6000.0                   1000.0                   30.000                   55.825                   62.760                   78.271                   80.253                   81.474                   82.110                   61.590                   71.073                   93.583                   96.615                   98.502                   99.442                   64.447                   75.371                   102.37                   106.15                   108.52                   109.67                   57.102                   64.581                   81.434                   83.606                   84.949                   85.646                   58.018                   65.857                   83.546                   85.766                   87.096                   87.751                   64.969                   76.111                   103.78                   107.67                   110.11                   111.29                   60.391                   69.339                   90.302                   93.090                   94.821                   95.694                   55.598                   62.480                   77.809                   79.760                   80.961                   81.586                   61.931                   71.532                   94.718                   97.893                   99.877                   100.86                   66.670                   77.162                   100.87                   103.99                   105.94                   106.91
12.000                   1.5000                   1.5000                   6000.0                   1000.0                   35.000                   64.943                   72.129                   87.996                   90.011                   91.252                   91.895                   71.424                   81.210                   104.17                   107.25                   109.16                   110.11                   74.600                   85.849                   113.34                   117.17                   119.57                   120.73                   66.349                   74.079                   91.229                   93.420                   94.776                   95.477                   67.407                   75.508                   93.492                   95.707                   97.019                   97.656                   75.196                   86.666                   114.84                   118.77                   121.25                   122.44                   70.059                   79.292                   100.66                   103.49                   105.24                   106.12                   64.669                   71.806                   87.490                   89.472                   90.690                   91.322                   71.834                   81.728                   105.35                   108.57                   110.59                   111.58                   77.285                   88.042                   112.07                   115.22                   117.19                   118.16
12.000                   1.5000                   1.5000                   6000.0                   1000.0                   40.000                   74.061                   81.498                   97.721                   99.769                   101.03                   101.68                   81.257                   91.348                   114.76                   117.88                   119.83                   120.78                   84.752                   96.327                   124.32                   128.20                   130.63                   131.80                   75.596                   83.577                   101.02                   103.23                   104.60                   105.31                   76.796                   85.160                   103.44                   105.65                   106.94                   107.56                   85.423                   97.221                   125.89                   129.88                   132.39                   133.59                   79.726                   89.245                   111.01                   113.88                   115.66                   116.55                   73.741                   81.132                   97.171                   99.183                   100.42                   101.06                   81.738                   91.924                   115.99                   119.26                   121.29                   122.29                   87.900                   98.921                   123.28                   126.45                   128.43                   129.41
12.000                   1.5000                   1.5000                   6000.0                   1000.0                   45.000                   83.667                   91.196                   107.60                   109.67                   110.94                   111.60                   91.389                   101.62                   125.37                   128.54                   130.51                   131.47                   95.073                   106.79                   135.15                   139.08                   141.54                   142.72                   85.300                   93.379                   110.99                   113.22                   114.59                   115.30                   86.633                   95.113                   113.61                   115.84                   117.15                   117.76                   95.809                   107.76                   136.80                   140.84                   143.38                   144.59                   89.721                   99.359                   121.39                   124.29                   126.10                   126.99                   83.360                   90.864                   107.13                   109.17                   110.42                   111.07                   91.954                   102.27                   126.66                   129.97                   132.04                   133.04                   98.679                   109.82                   134.38                   137.58                   139.58                   140.56
12.000                   1.5000                   1.5000                   6000.0                   1000.0                   50.000                   93.505                   101.05                   117.54                   119.63                   120.92                   121.58                   101.66                   111.96                   135.98                   139.20                   141.20                   142.17                   105.47                   117.26                   145.91                   149.89                   152.39                   153.58                   95.219                   103.32                   121.04                   123.28                   124.66                   125.37                   96.683                   105.21                   123.88                   126.15                   127.49                   128.09                   106.27                   118.28                   147.64                   151.73                   154.30                   155.52                   99.870                   109.55                   131.78                   134.72                   136.54                   137.44                   93.237                   100.79                   117.22                   119.29                   120.56                   121.21                   102.32                   112.69                   137.34                   140.70                   142.79                   143.81                   109.53                   120.72                   145.43                   148.66                   150.68                   151.66
12.000                   1.5000                   1.5000                   6000.0                   1000.0                   55.000                   103.34                   110.90                   127.49                   129.60                   130.90                   131.56                   111.94                   122.29                   146.60                   149.86                   151.89                   152.87                   115.87                   127.72                   156.67                   160.71                   163.24                   164.43                   105.14                   113.27                   131.09                   133.34                   134.73                   135.44                   106.73                   115.30                   134.16                   136.47                   137.83                   138.42                   116.73                   128.81                   158.47                   162.62                   165.23                   166.45                   110.02                   119.74                   142.17                   145.14                   146.99                   147.89                   103.11                   110.71                   127.31                   129.40                   130.69                   131.35                   112.68                   123.10                   148.02                   151.42                   153.55                   154.58                   120.39                   131.63                   156.48                   159.74                   161.78                   162.76
12.000                   1.5000                   1.5000                   6000.0                   1000.0                   60.000                   113.22                   120.80                   137.48                   139.60                   140.91                   141.58                   122.23                   132.66                   157.24                   160.55                   162.61                   163.60                   126.28                   138.19                   167.44                   171.53                   174.09                   175.30                   115.10                   123.26                   141.18                   143.45                   144.85                   145.57                   116.83                   125.45                   144.50                   146.84                   148.24                   148.83                   127.20                   139.34                   169.32                   173.52                   176.15                   177.39                   120.19                   129.96                   152.58                   155.59                   157.45                   158.37                   113.05                   120.70                   137.47                   139.59                   140.89                   141.55                   123.07                   133.54                   158.72                   162.17                   164.33                   165.36                   131.23                   142.51                   167.52                   170.80                   172.85                   173.84
12.000                   1.5000                   1.5000                   6000.0                   1000.0                   65.000                   123.30                   130.89                   147.65                   149.80                   151.12                   151.78                   132.64                   143.13                   167.99                   171.35                   173.44                   174.44                   136.71                   148.68                   178.23                   182.37                   184.97                   186.18                   125.26                   133.44                   151.52                   153.81                   155.22                   155.93                   127.15                   135.82                   155.12                   157.53                   158.98                   159.57                   137.69                   149.90                   180.18                   184.44                   187.11                   188.35                   130.48                   140.28                   163.10                   166.14                   168.03                   168.95                   123.29                   130.97                   147.92                   150.07                   151.40                   152.06                   133.56                   144.09                   169.53                   173.02                   175.21                   176.25                   141.98                   153.31                   178.46                   181.77                   183.84                   184.83
12.000                   1.5000                   1.5000                   6000.0                   1000.0                   70.000                   133.39                   140.97                   157.83                   159.99                   161.32                   161.99                   143.05                   153.60                   178.74                   182.15                   184.27                   185.27                   147.13                   159.16                   189.02                   193.21                   195.84                   197.07                   135.42                   143.63                   161.85                   164.16                   165.59                   166.30                   137.46                   146.19                   165.74                   168.21                   169.72                   170.31                   148.18                   160.45                   191.05                   195.35                   198.06                   199.31                   140.77                   150.61                   173.62                   176.70                   178.61                   179.53                   133.52                   141.25                   158.38                   160.56                   161.90                   162.57                   144.06                   154.63                   180.33                   183.87                   186.09                   187.14                   152.74                   164.11                   189.41                   192.74                   194.83                   195.83
12.000                   1.5000                   1.5000                   6000.0                   1000.0                   75.000                   143.47                   151.06                   168.00                   170.18                   171.53                   172.20                   153.46                   164.07                   189.49                   192.94                   195.09                   196.11                   157.56                   169.65                   199.81                   204.06                   206.72                   207.95                   145.58                   153.82                   172.18                   174.51                   175.95                   176.67                   147.78                   156.56                   176.36                   178.89                   180.46                   181.06                   158.67                   171.01                   201.91                   206.27                   209.01                   210.27                   151.06                   160.93                   184.15                   187.26                   189.19                   190.12                   143.75                   151.53                   168.84                   171.05                   172.41                   173.08                   154.55                   165.18                   191.14                   194.73                   196.97                   198.03                   163.49                   174.90                   200.35                   203.72                   205.82                   206.82