% Model:              batchmodel_COIL_N_12_COIL_kr_2.25_COIL_kh_1_FUNZ_freq_2000_FUNZ_I_eff_1000.mph
% Version:            COMSOL 6.0.0.318
% Date:               Feb 8 2022, 18:44
% Table:              Tabella 1 - GRIGLIA_T
% COIL_N                 COIL_kr                  COIL_kh                  FUNZ_freq                FUNZ_I_eff               Time (s)                 Temperatura (degC), Point: (0, 0)Temperatura (degC), Point: (15, 0)Temperatura (degC), Point: (25.641, 0)Temperatura (degC), Point: (27.821, 0)Temperatura (degC), Point: (29.128, 0)Temperatura (degC), Point: (29.99, 0)Temperatura (degC), Point: (0, 62.5)Temperatura (degC), Point: (15, 62.5)Temperatura (degC), Point: (25.641, 62.5)Temperatura (degC), Point: (27.821, 62.5)Temperatura (degC), Point: (29.128, 62.5)Temperatura (degC), Point: (29.99, 62.5)Temperatura (degC), Point: (0, 125)Temperatura (degC), Point: (15, 125)Temperatura (degC), Point: (25.641, 125)Temperatura (degC), Point: (27.821, 125)Temperatura (degC), Point: (29.128, 125)Temperatura (degC), Point: (29.99, 125)Temperatura (degC), Point: (0, 187.5)Temperatura (degC), Point: (15, 187.5)Temperatura (degC), Point: (25.641, 187.5)Temperatura (degC), Point: (27.821, 187.5)Temperatura (degC), Point: (29.128, 187.5)Temperatura (degC), Point: (29.99, 187.5)Temperatura (degC), Point: (0, 250)Temperatura (degC), Point: (15, 250)Temperatura (degC), Point: (25.641, 250)Temperatura (degC), Point: (27.821, 250)Temperatura (degC), Point: (29.128, 250)Temperatura (degC), Point: (29.99, 250)Temperatura (degC), Point: (0, 312.5)Temperatura (degC), Point: (15, 312.5)Temperatura (degC), Point: (25.641, 312.5)Temperatura (degC), Point: (27.821, 312.5)Temperatura (degC), Point: (29.128, 312.5)Temperatura (degC), Point: (29.99, 312.5)Temperatura (degC), Point: (0, 375)Temperatura (degC), Point: (15, 375)Temperatura (degC), Point: (25.641, 375)Temperatura (degC), Point: (27.821, 375)Temperatura (degC), Point: (29.128, 375)Temperatura (degC), Point: (29.99, 375)Temperatura (degC), Point: (0, 437.5)Temperatura (degC), Point: (15, 437.5)Temperatura (degC), Point: (25.641, 437.5)Temperatura (degC), Point: (27.821, 437.5)Temperatura (degC), Point: (29.128, 437.5)Temperatura (degC), Point: (29.99, 437.5)Temperatura (degC), Point: (0, 468.75)Temperatura (degC), Point: (15, 468.75)Temperatura (degC), Point: (25.641, 468.75)Temperatura (degC), Point: (27.821, 468.75)Temperatura (degC), Point: (29.128, 468.75)Temperatura (degC), Point: (29.99, 468.75)Temperatura (degC), Point: (0, 492.19)Temperatura (degC), Point: (15, 492.19)Temperatura (degC), Point: (25.641, 492.19)Temperatura (degC), Point: (27.821, 492.19)Temperatura (degC), Point: (29.128, 492.19)Temperatura (degC), Point: (29.99, 492.19)
12.000                   2.2500                   1.0000                   2000.0                   1000.0                   0.0000                   20.000                   20.000                   20.000                   20.000                   20.000                   20.024                   20.000                   20.000                   20.000                   20.000                   20.000                   20.026                   20.000                   20.000                   20.000                   20.000                   20.000                   20.027                   20.000                   20.000                   20.000                   20.000                   20.000                   20.025                   20.000                   20.000                   20.000                   20.000                   20.000                   20.025                   20.000                   20.000                   20.000                   20.000                   20.000                   20.027                   20.000                   20.000                   20.000                   20.000                   20.000                   20.025                   20.000                   20.000                   20.000                   20.000                   20.000                   20.024                   20.000                   20.000                   20.000                   20.000                   20.000                   20.024                   20.000                   20.000                   20.000                   20.000                   20.000                   20.017
12.000                   2.2500                   1.0000                   2000.0                   1000.0                   5.0000                   20.680                   21.948                   26.999                   28.919                   30.228                   30.948                   20.720                   22.088                   27.587                   29.690                   31.127                   31.912                   20.736                   22.145                   27.838                   30.023                   31.517                   32.332                   20.686                   21.968                   27.084                   29.030                   30.357                   31.087                   20.699                   22.014                   27.276                   29.282                   30.650                   31.401                   20.741                   22.162                   27.913                   30.124                   31.636                   32.460                   20.702                   22.025                   27.320                   29.340                   30.717                   31.473                   20.948                   22.682                   29.893                   32.753                   34.439                   35.200                   21.223                   23.433                   32.636                   35.854                   37.562                   38.278                   21.644                   24.394                   32.115                   35.114                   36.366                   36.780
12.000                   2.2500                   1.0000                   2000.0                   1000.0                   10.000                   23.196                   25.949                   32.808                   34.884                   36.250                   36.991                   23.361                   26.314                   33.748                   36.017                   37.515                   38.323                   23.428                   26.465                   34.149                   36.503                   38.061                   38.899                   23.220                   26.002                   32.944                   35.047                   36.432                   37.183                   23.273                   26.121                   33.251                   35.416                   36.844                   37.617                   23.444                   26.505                   34.262                   36.643                   38.219                   39.066                   23.288                   26.148                   33.309                   35.483                   36.916                   37.691                   24.935                   29.404                   41.314                   44.948                   46.755                   47.489                   26.781                   33.144                   50.529                   55.036                   57.023                   57.821                   28.765                   36.669                   52.643                   57.479                   59.875                   60.670
12.000                   2.2500                   1.0000                   2000.0                   1000.0                   15.000                   27.048                   30.553                   38.105                   40.240                   41.619                   42.356                   27.351                   31.098                   39.263                   41.592                   43.103                   43.905                   27.474                   31.323                   39.752                   42.168                   43.738                   44.570                   27.092                   30.631                   38.272                   40.434                   41.832                   42.579                   27.189                   30.808                   38.648                   40.873                   42.314                   43.082                   27.500                   31.377                   39.882                   42.324                   43.912                   44.752                   27.224                   30.851                   38.705                   40.933                   42.375                   43.144                   31.890                   38.111                   52.160                   55.909                   57.606                   58.310                   37.090                   46.536                   68.457                   73.404                   75.305                   75.943                   41.034                   52.436                   72.998                   78.578                   81.534                   82.525
12.000                   2.2500                   1.0000                   2000.0                   1000.0                   20.000                   31.354                   35.327                   43.262                   45.428                   46.815                   47.550                   31.790                   36.029                   44.590                   46.951                   48.468                   49.267                   31.967                   36.316                   45.148                   47.596                   49.172                   49.999                   31.416                   35.427                   43.453                   45.647                   47.052                   47.796                   31.556                   35.654                   43.883                   46.140                   47.587                   48.351                   32.001                   36.379                   45.287                   47.761                   49.354                   50.190                   31.615                   35.713                   43.937                   46.191                   47.637                   48.400                   39.960                   47.445                   62.765                   66.519                   68.110                   68.800                   49.211                   61.038                   85.793                   90.883                   92.584                   93.029                   55.161                   69.086                   92.556                   98.527                   101.79                   102.87
12.000                   2.2500                   1.0000                   2000.0                   1000.0                   25.000                   36.116                   40.269                   48.359                   50.544                   51.940                   52.676                   36.656                   41.080                   49.798                   52.178                   53.704                   54.504                   36.873                   41.410                   50.400                   52.867                   54.452                   55.280                   36.191                   40.383                   48.564                   50.777                   52.191                   52.937                   36.363                   40.643                   49.028                   51.304                   52.760                   53.527                   36.909                   41.476                   50.543                   53.036                   54.639                   55.476                   36.477                   40.751                   49.122                   51.395                   52.849                   53.614                   49.270                   57.278                   72.946                   76.585                   78.095                   78.747                   63.289                   76.290                   102.42                   107.70                   109.38                   109.85                   71.176                   86.394                   111.66                   117.94                   121.46                   122.58
12.000                   2.2500                   1.0000                   2000.0                   1000.0                   30.000                   40.995                   45.273                   53.481                   55.683                   57.088                   57.827                   41.618                   46.170                   55.009                   57.406                   58.941                   59.744                   41.868                   46.535                   55.646                   58.131                   59.725                   60.555                   41.080                   45.398                   53.697                   55.927                   57.350                   58.098                   41.277                   45.684                   54.188                   56.481                   57.946                   58.715                   41.905                   46.603                   55.792                   58.303                   59.916                   60.755                   41.497                   45.894                   54.379                   56.669                   58.133                   58.901                   58.704                   67.001                   82.789                   86.347                   87.786                   88.402                   77.406                   91.213                   118.40                   123.87                   125.58                   126.08                   87.070                   103.06                   129.07                   135.32                   138.84                   139.92
12.000                   2.2500                   1.0000                   2000.0                   1000.0                   35.000                   46.049                   50.370                   58.640                   60.857                   62.271                   63.013                   46.726                   51.322                   60.224                   62.637                   64.182                   64.987                   46.996                   51.707                   60.883                   63.383                   64.987                   65.821                   46.140                   50.500                   58.861                   61.106                   62.538                   63.290                   46.351                   50.802                   59.368                   61.676                   63.151                   63.922                   47.034                   51.776                   61.031                   63.559                   65.182                   66.024                   46.757                   51.195                   59.744                   62.051                   63.525                   64.297                   68.324                   76.561                   92.124                   95.652                   97.036                   97.618                   91.579                   105.64                   133.39                   139.05                   140.88                   141.43                   102.78                   118.77                   143.93                   149.65                   152.76                   153.73
12.000                   2.2500                   1.0000                   2000.0                   1000.0                   40.000                   51.104                   55.467                   63.799                   66.031                   67.454                   68.199                   51.834                   56.473                   65.439                   67.867                   69.422                   70.230                   52.125                   56.879                   66.119                   68.635                   70.250                   71.086                   51.199                   55.603                   64.026                   66.285                   67.727                   68.481                   51.426                   55.919                   64.548                   66.871                   68.356                   69.130                   52.162                   56.948                   66.271                   68.815                   70.448                   71.293                   52.016                   56.495                   65.110                   67.433                   68.918                   69.692                   77.945                   86.120                   101.46                   104.96                   106.29                   106.83                   105.75                   120.07                   148.39                   154.23                   156.17                   156.77                   118.50                   134.47                   158.79                   163.98                   166.69                   167.53
12.000                   2.2500                   1.0000                   2000.0                   1000.0                   45.000                   56.180                   60.582                   68.973                   71.220                   72.652                   73.400                   56.958                   61.636                   70.664                   73.107                   74.672                   75.482                   57.268                   62.062                   71.364                   73.896                   75.520                   76.359                   56.280                   60.722                   69.204                   71.479                   72.930                   73.687                   56.519                   61.051                   69.741                   72.079                   73.573                   74.350                   57.306                   62.133                   71.520                   74.080                   75.724                   76.572                   57.327                   61.845                   70.522                   72.862                   74.357                   75.135                   87.576                   95.700                   110.89                   114.39                   115.68                   116.20                   119.83                   134.39                   163.33                   169.40                   171.49                   172.14                   134.09                   150.06                   173.61                   178.31                   180.64                   181.37
12.000                   2.2500                   1.0000                   2000.0                   1000.0                   50.000                   61.342                   65.768                   74.207                   76.467                   77.908                   78.658                   62.149                   66.852                   75.930                   78.388                   79.962                   80.775                   62.470                   67.288                   76.643                   79.190                   80.824                   81.665                   61.443                   65.909                   74.440                   76.728                   78.188                   78.947                   61.690                   66.246                   74.985                   77.337                   78.840                   79.619                   62.514                   67.366                   76.807                   79.383                   81.037                   81.887                   62.844                   67.387                   76.123                   78.479                   79.985                   80.766                   97.252                   105.36                   120.72                   124.33                   125.67                   126.17                   133.53                   148.29                   178.06                   184.52                   186.90                   187.58                   149.18                   165.16                   188.28                   192.66                   194.70                   195.35
12.000                   2.2500                   1.0000                   2000.0                   1000.0                   55.000                   66.505                   70.953                   79.442                   81.715                   83.165                   83.917                   67.340                   72.067                   81.197                   83.669                   85.252                   86.068                   67.671                   72.514                   81.922                   84.483                   86.127                   86.970                   66.607                   71.096                   79.676                   81.978                   83.446                   84.208                   66.860                   71.440                   80.229                   82.595                   84.107                   84.888                   67.721                   72.599                   82.095                   84.686                   86.350                   87.203                   68.360                   72.930                   81.723                   84.096                   85.613                   86.397                   106.93                   115.02                   130.56                   134.27                   135.66                   136.13                   147.22                   162.19                   192.79                   199.64                   202.32                   203.03                   164.28                   180.25                   202.95                   207.01                   208.76                   209.34
12.000                   2.2500                   1.0000                   2000.0                   1000.0                   60.000                   71.667                   76.139                   84.676                   86.963                   88.421                   89.176                   72.532                   77.282                   86.463                   88.950                   90.543                   91.360                   72.873                   77.740                   87.200                   89.777                   91.430                   92.276                   71.771                   76.283                   84.912                   87.227                   88.705                   89.468                   72.031                   76.634                   85.473                   87.853                   89.373                   90.157                   72.929                   77.832                   87.382                   89.988                   91.663                   92.518                   73.876                   78.473                   87.323                   89.713                   91.241                   92.028                   116.60                   124.68                   140.39                   144.21                   145.65                   146.10                   160.91                   176.09                   207.51                   214.76                   217.73                   218.47                   179.38                   195.35                   217.62                   221.35                   222.82                   223.32
12.000                   2.2500                   1.0000                   2000.0                   1000.0                   65.000                   76.921                   81.414                   89.996                   92.297                   93.764                   94.521                   77.798                   82.570                   91.799                   94.301                   95.903                   96.723                   78.143                   83.032                   92.542                   95.134                   96.797                   97.645                   77.023                   81.556                   90.231                   92.560                   94.047                   94.812                   77.286                   81.910                   90.796                   93.190                   94.720                   95.506                   78.228                   83.154                   92.756                   95.378                   97.062                   97.920                   79.704                   84.324                   93.228                   95.633                   97.172                   97.961                   126.08                   134.19                   150.15                   154.08                   155.60                   156.05                   173.11                   188.29                   219.93                   227.40                   230.61                   231.35                   192.53                   208.35                   230.22                   233.76                   235.09                   235.53
12.000                   2.2500                   1.0000                   2000.0                   1000.0                   70.000                   82.176                   86.689                   95.317                   97.631                   99.107                   99.866                   83.064                   87.857                   97.136                   99.652                   101.26                   102.09                   83.413                   88.323                   97.884                   100.49                   102.16                   103.01                   82.276                   86.829                   95.551                   97.894                   99.389                   100.16                   82.541                   87.186                   96.120                   98.528                   100.07                   100.86                   83.528                   88.476                   98.130                   100.77                   102.46                   103.32                   85.532                   90.176                   99.133                   101.55                   103.10                   103.90                   135.55                   143.70                   159.91                   163.95                   165.55                   166.01                   185.30                   200.49                   232.35                   240.04                   243.50                   244.23                   205.67                   221.34                   242.81                   246.17                   247.35                   247.74
12.000                   2.2500                   1.0000                   2000.0                   1000.0                   75.000                   87.430                   91.963                   100.64                   102.96                   104.45                   105.21                   88.330                   93.144                   102.47                   105.00                   106.62                   107.45                   88.682                   93.615                   103.23                   105.85                   107.53                   108.38                   87.529                   92.103                   100.87                   103.23                   104.73                   105.50                   87.796                   92.462                   101.44                   103.87                   105.41                   106.20                   88.827                   93.798                   103.50                   106.16                   107.86                   108.72                   91.361                   96.027                   105.04                   107.48                   109.03                   109.83                   145.02                   153.21                   169.67                   173.81                   175.50                   175.96                   197.49                   212.69                   244.77                   252.68                   256.38                   257.11                   218.82                   234.34                   255.41                   258.58                   259.61                   259.95