% Model:              batchmodel_COIL_N_12_COIL_kr_2.25_COIL_kh_1.5_FUNZ_freq_10000_FUNZ_I_eff_1000.mph
% Version:            COMSOL 6.0.0.318
% Date:               Feb 8 2022, 19:18
% Table:              Tabella 1 - GRIGLIA_T
% COIL_N                 COIL_kr                  COIL_kh                  FUNZ_freq                FUNZ_I_eff               Time (s)                 Temperatura (degC), Point: (0, 0)Temperatura (degC), Point: (15, 0)Temperatura (degC), Point: (28.051, 0)Temperatura (degC), Point: (29.025, 0)Temperatura (degC), Point: (29.61, 0)Temperatura (degC), Point: (29.99, 0)Temperatura (degC), Point: (0, 62.5)Temperatura (degC), Point: (15, 62.5)Temperatura (degC), Point: (28.051, 62.5)Temperatura (degC), Point: (29.025, 62.5)Temperatura (degC), Point: (29.61, 62.5)Temperatura (degC), Point: (29.99, 62.5)Temperatura (degC), Point: (0, 125)Temperatura (degC), Point: (15, 125)Temperatura (degC), Point: (28.051, 125)Temperatura (degC), Point: (29.025, 125)Temperatura (degC), Point: (29.61, 125)Temperatura (degC), Point: (29.99, 125)Temperatura (degC), Point: (0, 187.5)Temperatura (degC), Point: (15, 187.5)Temperatura (degC), Point: (28.051, 187.5)Temperatura (degC), Point: (29.025, 187.5)Temperatura (degC), Point: (29.61, 187.5)Temperatura (degC), Point: (29.99, 187.5)Temperatura (degC), Point: (0, 250)Temperatura (degC), Point: (15, 250)Temperatura (degC), Point: (28.051, 250)Temperatura (degC), Point: (29.025, 250)Temperatura (degC), Point: (29.61, 250)Temperatura (degC), Point: (29.99, 250)Temperatura (degC), Point: (0, 312.5)Temperatura (degC), Point: (15, 312.5)Temperatura (degC), Point: (28.051, 312.5)Temperatura (degC), Point: (29.025, 312.5)Temperatura (degC), Point: (29.61, 312.5)Temperatura (degC), Point: (29.99, 312.5)Temperatura (degC), Point: (0, 375)Temperatura (degC), Point: (15, 375)Temperatura (degC), Point: (28.051, 375)Temperatura (degC), Point: (29.025, 375)Temperatura (degC), Point: (29.61, 375)Temperatura (degC), Point: (29.99, 375)Temperatura (degC), Point: (0, 437.5)Temperatura (degC), Point: (15, 437.5)Temperatura (degC), Point: (28.051, 437.5)Temperatura (degC), Point: (29.025, 437.5)Temperatura (degC), Point: (29.61, 437.5)Temperatura (degC), Point: (29.99, 437.5)Temperatura (degC), Point: (0, 468.75)Temperatura (degC), Point: (15, 468.75)Temperatura (degC), Point: (28.051, 468.75)Temperatura (degC), Point: (29.025, 468.75)Temperatura (degC), Point: (29.61, 468.75)Temperatura (degC), Point: (29.99, 468.75)Temperatura (degC), Point: (0, 492.19)Temperatura (degC), Point: (15, 492.19)Temperatura (degC), Point: (28.051, 492.19)Temperatura (degC), Point: (29.025, 492.19)Temperatura (degC), Point: (29.61, 492.19)Temperatura (degC), Point: (29.99, 492.19)
12.000                   2.2500                   1.5000                   10000                    1000.0                   0.0000                   20.000                   20.000                   20.000                   20.000                   20.003                   20.092                   20.000                   20.000                   20.000                   20.000                   20.003                   20.103                   20.000                   20.000                   20.000                   20.000                   20.004                   20.109                   20.000                   20.000                   20.000                   20.000                   20.003                   20.095                   20.000                   20.000                   20.000                   20.000                   20.003                   20.097                   20.000                   20.000                   20.000                   20.000                   20.004                   20.110                   20.000                   20.000                   20.000                   20.000                   20.003                   20.101                   20.000                   20.000                   20.000                   20.000                   20.003                   20.092                   20.000                   20.000                   20.000                   20.000                   20.003                   20.103                   20.000                   20.000                   20.000                   20.000                   20.003                   20.090
12.000                   2.2500                   1.5000                   10000                    1000.0                   5.0000                   21.107                   23.739                   38.968                   41.133                   42.523                   43.265                   21.281                   24.485                   43.184                   45.755                   47.378                   48.221                   21.337                   24.696                   44.352                   47.071                   48.791                   49.681                   21.142                   23.921                   40.092                   42.365                   43.815                   44.583                   21.181                   24.087                   41.060                   43.415                   44.906                   45.688                   21.334                   24.671                   44.101                   46.799                   48.520                   49.416                   21.241                   24.336                   42.450                   44.947                   46.525                   47.347                   21.150                   23.941                   40.027                   42.247                   43.653                   44.398                   21.221                   24.320                   42.510                   45.023                   46.619                   47.453                   20.958                   23.616                   38.562                   40.623                   41.946                   42.655
12.000                   2.2500                   1.5000                   10000                    1000.0                   10.000                   26.436                   32.805                   54.034                   56.434                   57.935                   58.696                   27.141                   34.366                   58.193                   60.855                   62.515                   63.366                   27.400                   34.952                   60.037                   62.844                   64.598                   65.498                   26.583                   33.156                   54.949                   57.376                   58.879                   59.657                   26.726                   33.460                   55.635                   58.100                   59.634                   60.426                   27.417                   35.012                   60.612                   63.538                   65.346                   66.226                   26.968                   34.000                   57.187                   59.776                   61.391                   62.223                   26.558                   33.049                   54.345                   56.702                   58.167                   58.926                   26.799                   33.773                   57.105                   59.726                   61.366                   62.213                   26.714                   33.259                   53.748                   56.080                   57.455                   58.159
12.000                   2.2500                   1.5000                   10000                    1000.0                   15.000                   35.375                   43.754                   67.465                   69.954                   71.506                   72.292                   36.558                   45.800                   71.928                   74.665                   76.363                   77.225                   37.003                   46.618                   74.039                   76.922                   78.716                   79.623                   35.614                   44.184                   68.351                   70.847                   72.379                   73.159                   35.858                   44.594                   69.155                   71.702                   73.277                   74.081                   37.097                   46.842                   75.154                   78.196                   80.046                   80.917                   36.232                   45.255                   70.723                   73.385                   75.037                   75.877                   35.468                   43.906                   67.636                   70.081                   71.581                   72.354                   35.829                   44.730                   70.272                   72.968                   74.643                   75.497                   36.683                   45.374                   68.019                   70.449                   71.841                   72.543
12.000                   2.2500                   1.5000                   10000                    1000.0                   20.000                   45.665                   55.297                   80.377                   82.915                   84.499                   85.298                   47.264                   57.751                   85.306                   88.104                   89.834                   90.705                   47.845                   58.708                   87.535                   90.481                   92.308                   93.221                   45.986                   55.806                   81.356                   83.891                   85.436                   86.211                   46.320                   56.310                   82.352                   84.965                   86.574                   87.392                   48.030                   59.085                   88.962                   92.085                   93.964                   94.832                   46.781                   57.035                   83.951                   86.681                   88.368                   89.220                   45.664                   55.306                   80.465                   82.975                   84.508                   85.287                   46.159                   56.230                   83.104                   85.857                   87.559                   88.419                   48.418                   58.328                   82.173                   84.716                   86.144                   86.843
12.000                   2.2500                   1.5000                   10000                    1000.0                   25.000                   57.118                   67.407                   93.274                   95.862                   97.475                   98.281                   59.031                   70.170                   98.596                   101.45                   103.21                   104.09                   59.670                   71.171                   100.82                   103.82                   105.68                   106.60                   57.464                   67.922                   94.199                   96.768                   98.328                   99.102                   57.928                   68.589                   95.539                   98.210                   99.854                   100.68                   60.025                   71.799                   102.77                   105.99                   107.93                   108.81                   58.360                   69.239                   96.971                   99.756                   101.47                   102.34                   56.954                   67.223                   93.204                   95.776                   97.345                   98.130                   57.587                   68.248                   95.882                   98.683                   100.41                   101.28                   61.115                   71.518                   95.993                   98.633                   100.11                   100.79
12.000                   2.2500                   1.5000                   10000                    1000.0                   30.000                   69.289                   79.896                   106.33                   108.98                   110.62                   111.44                   71.434                   82.890                   111.91                   114.82                   116.62                   117.51                   72.076                   83.871                   114.06                   117.12                   119.01                   119.94                   69.605                   80.342                   107.00                   109.61                   111.19                   111.97                   70.241                   81.245                   108.82                   111.55                   113.23                   114.07                   72.674                   84.855                   116.82                   120.17                   122.20                   123.11                   70.546                   81.697                   109.87                   112.70                   114.45                   115.32                   68.914                   79.484                   106.02                   108.66                   110.27                   111.06                   69.680                   80.603                   108.70                   111.55                   113.31                   114.18                   74.163                   84.659                   109.48                   112.18                   113.69                   114.35
12.000                   2.2500                   1.5000                   10000                    1000.0                   35.000                   81.526                   92.438                   119.43                   122.14                   123.82                   124.65                   83.894                   95.654                   125.26                   128.23                   130.06                   130.97                   84.537                   96.615                   127.35                   130.46                   132.39                   133.33                   81.812                   92.816                   119.86                   122.51                   124.12                   124.90                   82.616                   93.945                   122.14                   124.92                   126.63                   127.49                   85.357                   97.920                   130.82                   134.30                   136.41                   137.35                   82.790                   94.202                   122.83                   125.70                   127.48                   128.35                   80.944                   91.803                   118.88                   121.59                   123.24                   124.04                   81.829                   93.003                   121.56                   124.46                   126.25                   127.13                   87.192                   97.773                   122.92                   125.67                   127.23                   127.86
12.000                   2.2500                   1.5000                   10000                    1000.0                   40.000                   94.382                   105.47                   133.00                   135.78                   137.49                   138.33                   96.871                   108.82                   138.98                   142.02                   143.89                   144.80                   97.506                   109.77                   141.07                   144.25                   146.21                   147.17                   94.630                   105.80                   133.29                   135.99                   137.63                   138.42                   95.552                   107.06                   135.73                   138.56                   140.30                   141.17                   98.345                   111.07                   144.39                   147.92                   150.07                   151.02                   95.563                   107.14                   136.25                   139.18                   140.99                   141.87                   93.608                   104.65                   132.21                   134.96                   136.64                   137.45                   94.488                   105.82                   134.87                   137.82                   139.64                   140.54                   100.04                   110.64                   135.97                   138.74                   140.30                   140.92
12.000                   2.2500                   1.5000                   10000                    1000.0                   45.000                   107.24                   118.51                   146.58                   149.41                   151.16                   152.01                   109.85                   121.98                   152.71                   155.80                   157.71                   158.64                   110.47                   122.93                   154.79                   158.04                   160.04                   161.01                   107.45                   118.78                   146.73                   149.47                   151.14                   151.95                   108.49                   120.17                   149.32                   152.20                   153.97                   154.85                   111.33                   124.22                   157.97                   161.55                   163.73                   164.69                   108.34                   120.08                   149.67                   152.65                   154.50                   155.40                   106.27                   117.49                   145.54                   148.33                   150.03                   150.85                   107.15                   118.63                   148.17                   151.18                   153.04                   153.94                   112.89                   123.51                   149.02                   151.80                   153.37                   153.98
12.000                   2.2500                   1.5000                   10000                    1000.0                   50.000                   120.10                   131.54                   160.15                   163.05                   164.83                   165.69                   122.82                   135.15                   166.43                   169.59                   171.54                   172.48                   123.44                   136.09                   168.52                   171.82                   173.87                   174.85                   120.27                   131.76                   160.16                   162.96                   164.66                   165.47                   121.42                   133.28                   162.91                   165.84                   167.64                   168.53                   124.32                   137.37                   171.54                   175.17                   177.39                   178.36                   121.11                   133.01                   163.09                   166.13                   168.01                   168.92                   118.94                   130.33                   158.87                   161.71                   163.43                   164.26                   119.81                   131.44                   161.47                   164.54                   166.43                   167.35                   125.74                   136.38                   162.07                   164.86                   166.44                   167.03
12.000                   2.2500                   1.5000                   10000                    1000.0                   55.000                   132.95                   144.58                   173.73                   176.69                   178.50                   179.37                   135.80                   148.31                   180.16                   183.38                   185.37                   186.32                   136.41                   149.25                   182.24                   185.61                   187.70                   188.69                   133.08                   144.74                   173.59                   176.44                   178.17                   179.00                   134.36                   146.40                   176.50                   179.48                   181.31                   182.21                   137.31                   150.52                   185.12                   188.80                   191.05                   192.02                   133.88                   145.95                   176.52                   179.60                   181.52                   182.44                   131.60                   143.18                   172.20                   175.08                   176.83                   177.67                   132.46                   144.26                   174.77                   177.89                   179.82                   180.75                   138.59                   149.25                   175.12                   177.92                   179.51                   180.09
12.000                   2.2500                   1.5000                   10000                    1000.0                   60.000                   145.92                   157.73                   187.46                   190.48                   192.33                   193.21                   148.88                   161.59                   194.03                   197.31                   199.34                   200.31                   149.49                   162.52                   196.14                   199.58                   201.70                   202.71                   146.03                   157.86                   187.25                   190.15                   191.92                   192.76                   147.38                   159.60                   190.22                   193.25                   195.12                   196.03                   150.37                   163.75                   198.79                   202.51                   204.79                   205.77                   146.76                   159.00                   190.09                   193.24                   195.19                   196.12                   144.38                   156.14                   185.70                   188.63                   190.41                   191.25                   145.20                   157.15                   188.18                   191.35                   193.32                   194.26                   151.45                   162.15                   188.24                   191.06                   192.66                   193.22
12.000                   2.2500                   1.5000                   10000                    1000.0                   65.000                   159.16                   171.17                   201.54                   204.63                   206.54                   207.43                   162.20                   175.12                   208.24                   211.60                   213.68                   214.66                   162.82                   176.09                   210.44                   213.96                   216.14                   217.16                   159.27                   171.32                   201.42                   204.42                   206.24                   207.11                   160.61                   173.02                   204.25                   207.34                   209.25                   210.17                   163.61                   177.18                   212.71                   216.44                   218.72                   219.69                   159.88                   172.32                   204.04                   207.25                   209.25                   210.19                   157.42                   169.40                   199.59                   202.59                   204.41                   205.27                   158.12                   170.25                   201.81                   205.05                   207.06                   208.01                   164.31                   175.10                   201.50                   204.36                   205.97                   206.52
12.000                   2.2500                   1.5000                   10000                    1000.0                   70.000                   172.40                   184.62                   215.62                   218.79                   220.74                   221.65                   175.51                   188.65                   222.45                   225.89                   228.01                   229.00                   176.16                   189.66                   224.74                   228.34                   230.57                   231.61                   172.51                   184.78                   215.60                   218.68                   220.56                   221.45                   173.84                   186.45                   218.27                   221.43                   223.39                   224.32                   176.85                   190.61                   226.63                   230.37                   232.64                   233.62                   172.99                   185.64                   217.98                   221.27                   223.30                   224.25                   170.47                   182.65                   213.49                   216.55                   218.41                   219.28                   171.04                   183.34                   215.45                   218.75                   220.80                   221.76                   177.17                   188.04                   214.77                   217.66                   219.28                   219.82
12.000                   2.2500                   1.5000                   10000                    1000.0                   75.000                   185.64                   198.06                   229.71                   232.95                   234.94                   235.86                   188.83                   202.19                   236.66                   240.18                   242.35                   243.35                   189.49                   203.22                   239.04                   242.73                   245.01                   246.06                   185.75                   198.25                   229.78                   232.94                   234.89                   235.79                   187.07                   199.87                   232.30                   235.53                   237.52                   238.47                   190.10                   204.05                   240.56                   244.30                   246.56                   247.54                   186.11                   198.96                   231.93                   235.28                   237.35                   238.32                   183.51                   195.91                   227.39                   230.52                   232.41                   233.30                   183.96                   196.43                   229.09                   232.45                   234.54                   235.52                   190.03                   200.99                   228.04                   230.96                   232.59                   233.12