% Model:              batchmodel_COIL_N_12_COIL_kr_3_COIL_kh_2_FUNZ_freq_10000_FUNZ_I_eff_1000.mph
% Version:            COMSOL 6.0.0.318
% Date:               Feb 8 2022, 20:31
% Table:              Tabella 1 - GRIGLIA_T
% COIL_N                 COIL_kr                  COIL_kh                  FUNZ_freq                FUNZ_I_eff               Time (s)                 Temperatura (degC), Point: (0, 0)Temperatura (degC), Point: (15, 0)Temperatura (degC), Point: (28.051, 0)Temperatura (degC), Point: (29.025, 0)Temperatura (degC), Point: (29.61, 0)Temperatura (degC), Point: (29.99, 0)Temperatura (degC), Point: (0, 62.5)Temperatura (degC), Point: (15, 62.5)Temperatura (degC), Point: (28.051, 62.5)Temperatura (degC), Point: (29.025, 62.5)Temperatura (degC), Point: (29.61, 62.5)Temperatura (degC), Point: (29.99, 62.5)Temperatura (degC), Point: (0, 125)Temperatura (degC), Point: (15, 125)Temperatura (degC), Point: (28.051, 125)Temperatura (degC), Point: (29.025, 125)Temperatura (degC), Point: (29.61, 125)Temperatura (degC), Point: (29.99, 125)Temperatura (degC), Point: (0, 187.5)Temperatura (degC), Point: (15, 187.5)Temperatura (degC), Point: (28.051, 187.5)Temperatura (degC), Point: (29.025, 187.5)Temperatura (degC), Point: (29.61, 187.5)Temperatura (degC), Point: (29.99, 187.5)Temperatura (degC), Point: (0, 250)Temperatura (degC), Point: (15, 250)Temperatura (degC), Point: (28.051, 250)Temperatura (degC), Point: (29.025, 250)Temperatura (degC), Point: (29.61, 250)Temperatura (degC), Point: (29.99, 250)Temperatura (degC), Point: (0, 312.5)Temperatura (degC), Point: (15, 312.5)Temperatura (degC), Point: (28.051, 312.5)Temperatura (degC), Point: (29.025, 312.5)Temperatura (degC), Point: (29.61, 312.5)Temperatura (degC), Point: (29.99, 312.5)Temperatura (degC), Point: (0, 375)Temperatura (degC), Point: (15, 375)Temperatura (degC), Point: (28.051, 375)Temperatura (degC), Point: (29.025, 375)Temperatura (degC), Point: (29.61, 375)Temperatura (degC), Point: (29.99, 375)Temperatura (degC), Point: (0, 437.5)Temperatura (degC), Point: (15, 437.5)Temperatura (degC), Point: (28.051, 437.5)Temperatura (degC), Point: (29.025, 437.5)Temperatura (degC), Point: (29.61, 437.5)Temperatura (degC), Point: (29.99, 437.5)Temperatura (degC), Point: (0, 468.75)Temperatura (degC), Point: (15, 468.75)Temperatura (degC), Point: (28.051, 468.75)Temperatura (degC), Point: (29.025, 468.75)Temperatura (degC), Point: (29.61, 468.75)Temperatura (degC), Point: (29.99, 468.75)Temperatura (degC), Point: (0, 492.19)Temperatura (degC), Point: (15, 492.19)Temperatura (degC), Point: (28.051, 492.19)Temperatura (degC), Point: (29.025, 492.19)Temperatura (degC), Point: (29.61, 492.19)Temperatura (degC), Point: (29.99, 492.19)
12.000                   3.0000                   2.0000                   10000                    1000.0                   0.0000                   20.000                   20.000                   20.000                   20.000                   20.003                   20.098                   20.000                   20.000                   20.000                   20.000                   20.003                   20.099                   20.000                   20.000                   20.000                   20.000                   20.003                   20.101                   20.000                   20.000                   20.000                   20.000                   20.003                   20.098                   20.000                   20.000                   20.000                   20.000                   20.003                   20.098                   20.000                   20.000                   20.000                   20.000                   20.003                   20.100                   20.000                   20.000                   20.000                   20.000                   20.003                   20.099                   20.000                   20.000                   20.000                   20.000                   20.003                   20.096                   20.000                   20.000                   20.000                   20.000                   20.003                   20.094                   20.000                   20.000                   20.000                   20.000                   20.002                   20.073
12.000                   3.0000                   2.0000                   10000                    1000.0                   5.0000                   21.602                   25.044                   45.366                   48.174                   49.985                   50.915                   21.664                   25.344                   48.920                   52.699                   55.122                   56.042                   21.658                   25.256                   46.265                   49.314                   50.960                   51.468                   21.599                   25.067                   45.132                   47.882                   49.595                   50.417                   21.610                   25.085                   45.185                   47.951                   49.561                   50.249                   21.684                   25.384                   47.666                   51.018                   52.942                   53.603                   21.625                   25.246                   48.337                   51.908                   54.129                   54.936                   21.552                   24.951                   45.733                   48.783                   50.549                   51.249                   21.762                   25.528                   48.601                   51.919                   53.868                   54.732                   23.269                   28.916                   55.828                   59.979                   62.312                   63.293
12.000                   3.0000                   2.0000                   10000                    1000.0                   10.000                   28.023                   35.437                   59.265                   61.808                   63.382                   64.191                   28.281                   36.066                   61.223                   63.879                   65.509                   66.337                   28.301                   36.079                   61.034                   63.681                   65.347                   66.204                   27.994                   35.430                   59.268                   61.815                   63.393                   64.205                   28.055                   35.518                   59.375                   61.923                   63.500                   64.308                   28.372                   36.260                   61.469                   64.099                   65.734                   66.580                   28.086                   35.739                   60.617                   63.243                   64.857                   65.680                   27.783                   35.012                   58.495                   61.034                   62.608                   63.414                   28.657                   36.452                   60.811                   63.279                   64.784                   65.556                   31.604                   40.632                   63.115                   64.985                   66.097                   66.672
12.000                   3.0000                   2.0000                   10000                    1000.0                   15.000                   37.709                   46.888                   71.854                   74.413                   75.998                   76.807                   38.077                   47.505                   72.923                   75.510                   77.115                   77.937                   38.115                   47.555                   72.862                   75.400                   76.988                   77.784                   37.629                   46.821                   71.874                   74.450                   76.044                   76.860                   37.737                   46.954                   72.015                   74.585                   76.178                   76.994                   38.189                   47.685                   73.094                   75.657                   77.260                   78.071                   37.743                   47.076                   72.414                   75.008                   76.618                   77.442                   37.215                   46.140                   70.280                   72.724                   74.235                   75.007                   38.341                   47.395                   71.214                   73.613                   75.098                   75.865                   41.076                   49.947                   69.598                   71.335                   72.403                   72.970
12.000                   3.0000                   2.0000                   10000                    1000.0                   20.000                   48.326                   58.562                   84.456                   87.059                   88.668                   89.486                   48.697                   59.059                   84.948                   87.544                   89.159                   89.984                   48.703                   59.029                   84.438                   86.877                   88.393                   89.142                   48.167                   58.403                   84.391                   87.010                   88.630                   89.455                   48.308                   58.564                   84.547                   87.158                   88.775                   89.598                   48.741                   59.085                   84.617                   87.137                   88.710                   89.492                   48.303                   58.629                   84.586                   87.203                   88.830                   89.660                   47.498                   57.404                   82.133                   84.562                   86.056                   86.817                   48.445                   58.105                   81.753                   84.132                   85.615                   86.382                   50.470                   59.047                   77.370                   79.065                   80.121                   80.685
12.000                   3.0000                   2.0000                   10000                    1000.0                   25.000                   59.764                   70.491                   97.065                   99.719                   101.36                   102.19                   60.031                   70.789                   97.239                   99.893                   101.54                   102.38                   59.930                   70.560                   96.017                   98.424                   99.912                   100.64                   59.471                   70.174                   96.793                   99.459                   101.11                   101.94                   59.649                   70.376                   97.014                   99.676                   101.32                   102.15                   59.859                   70.443                   95.878                   98.365                   99.910                   100.68                   59.661                   70.437                   97.024                   99.696                   101.36                   102.20                   58.430                   68.689                   93.425                   95.789                   97.235                   97.976                   58.771                   68.573                   92.219                   94.600                   96.089                   96.857                   59.803                   68.120                   86.074                   87.774                   88.835                   89.399
12.000                   3.0000                   2.0000                   10000                    1000.0                   30.000                   71.201                   82.420                   109.67                   112.38                   114.05                   114.89                   71.364                   82.518                   109.53                   112.24                   113.93                   114.77                   71.157                   82.092                   107.60                   109.97                   111.43                   112.13                   70.776                   81.945                   109.19                   111.91                   113.58                   114.43                   70.990                   82.188                   109.48                   112.19                   113.87                   114.71                   70.978                   81.801                   107.14                   109.59                   111.11                   111.86                   71.019                   82.246                   109.46                   112.19                   113.88                   114.73                   69.362                   79.973                   104.72                   107.02                   108.41                   109.14                   69.097                   79.041                   102.68                   105.07                   106.56                   107.33                   69.136                   77.194                   94.778                   96.483                   97.549                   98.113
12.000                   3.0000                   2.0000                   10000                    1000.0                   35.000                   83.428                   94.790                   122.52                   125.28                   126.99                   127.83                   83.560                   94.865                   122.44                   125.22                   126.94                   127.80                   83.307                   94.400                   120.60                   123.07                   124.59                   125.32                   82.950                   94.268                   122.01                   124.78                   126.48                   127.34                   83.159                   94.502                   122.28                   125.05                   126.76                   127.60                   83.113                   94.106                   120.18                   122.72                   124.29                   125.07                   83.226                   94.607                   122.38                   125.16                   126.89                   127.75                   81.042                   91.799                   117.15                   119.53                   120.98                   121.72                   79.783                   89.785                   113.86                   116.29                   117.82                   118.59                   78.902                   86.948                   104.77                   106.50                   107.58                   108.15
12.000                   3.0000                   2.0000                   10000                    1000.0                   40.000                   95.835                   107.26                   135.43                   138.24                   139.98                   140.83                   95.952                   107.35                   135.50                   138.33                   140.09                   140.96                   95.666                   106.89                   133.92                   136.52                   138.12                   138.89                   95.323                   106.72                   134.92                   137.74                   139.48                   140.34                   95.517                   106.93                   135.16                   137.98                   139.72                   140.58                   95.478                   106.63                   133.62                   136.28                   137.93                   138.73                   95.626                   107.09                   135.40                   138.25                   140.01                   140.88                   92.892                   103.75                   129.84                   132.34                   133.86                   134.63                   90.551                   100.59                   125.20                   127.69                   129.25                   130.04                   88.766                   96.857                   115.06                   116.82                   117.91                   118.48
12.000                   3.0000                   2.0000                   10000                    1000.0                   45.000                   108.24                   119.73                   148.33                   151.20                   152.96                   153.83                   108.34                   119.84                   148.55                   151.45                   153.24                   154.12                   108.03                   119.37                   147.24                   149.97                   151.65                   152.46                   107.69                   119.16                   147.83                   150.70                   152.48                   153.35                   107.88                   119.36                   148.03                   150.91                   152.68                   153.55                   107.84                   119.15                   147.06                   149.84                   151.56                   152.40                   108.03                   119.58                   148.42                   151.33                   153.13                   154.01                   104.74                   115.70                   142.54                   145.15                   146.75                   147.54                   101.32                   111.40                   136.53                   139.09                   140.68                   141.48                   98.631                   106.77                   125.35                   127.13                   128.24                   128.81
12.000                   3.0000                   2.0000                   10000                    1000.0                   50.000                   120.65                   132.20                   161.24                   164.15                   165.95                   166.83                   120.74                   132.32                   161.61                   164.57                   166.40                   167.29                   120.38                   131.85                   160.57                   163.42                   165.18                   166.03                   120.07                   131.61                   160.73                   163.66                   165.47                   166.35                   120.23                   131.79                   160.91                   163.84                   165.64                   166.52                   120.21                   131.67                   160.50                   163.40                   165.20                   166.06                   120.43                   132.07                   161.44                   164.41                   166.24                   167.14                   116.59                   127.65                   155.23                   157.95                   159.63                   160.45                   112.09                   122.21                   147.87                   150.49                   152.11                   152.92                   108.50                   116.67                   135.64                   137.45                   138.56                   139.14
12.000                   3.0000                   2.0000                   10000                    1000.0                   55.000                   133.05                   144.67                   174.15                   177.11                   178.94                   179.83                   133.13                   144.81                   174.66                   177.68                   179.55                   180.45                   132.74                   144.34                   173.89                   176.87                   178.71                   179.60                   132.44                   144.06                   173.64                   176.63                   178.47                   179.36                   132.59                   144.21                   173.79                   176.77                   178.61                   179.50                   132.57                   144.19                   173.94                   176.96                   178.83                   179.73                   132.83                   144.55                   174.47                   177.49                   179.36                   180.26                   128.44                   139.60                   167.92                   170.76                   172.51                   173.36                   122.86                   133.01                   159.21                   161.89                   163.55                   164.36                   118.36                   126.58                   145.93                   147.76                   148.89                   149.47
12.000                   3.0000                   2.0000                   10000                    1000.0                   60.000                   145.67                   157.43                   187.43                   190.46                   192.33                   193.22                   145.78                   157.64                   188.10                   191.18                   193.09                   194.00                   145.46                   157.29                   187.79                   190.90                   192.82                   193.74                   145.06                   156.84                   186.96                   190.01                   191.89                   192.79                   145.19                   156.97                   187.07                   190.11                   191.98                   192.89                   145.27                   157.13                   187.78                   190.91                   192.85                   193.77                   145.38                   157.26                   187.75                   190.83                   192.74                   193.65                   140.44                   151.78                   180.86                   183.81                   185.63                   186.50                   133.80                   144.07                   170.75                   173.48                   175.17                   176.00                   128.54                   136.84                   156.44                   158.29                   159.43                   160.01
12.000                   3.0000                   2.0000                   10000                    1000.0                   65.000                   158.31                   170.23                   200.78                   203.87                   205.77                   206.68                   158.47                   170.52                   201.59                   204.74                   206.69                   207.61                   158.22                   170.32                   201.78                   205.02                   207.03                   207.98                   157.72                   169.67                   200.35                   203.45                   205.37                   206.28                   157.84                   169.78                   200.41                   203.51                   205.43                   206.34                   158.03                   170.14                   201.68                   204.92                   206.92                   207.87                   157.95                   170.01                   201.06                   204.21                   206.16                   207.09                   152.46                   164.00                   193.84                   196.89                   198.78                   199.67                   144.77                   155.17                   182.32                   185.11                   186.83                   187.66                   138.77                   147.14                   166.98                   168.86                   170.01                   170.59
12.000                   3.0000                   2.0000                   10000                    1000.0                   70.000                   170.95                   183.03                   214.13                   217.27                   219.22                   220.14                   171.16                   183.41                   215.08                   218.30                   220.29                   221.22                   170.99                   183.34                   215.77                   219.14                   221.23                   222.22                   170.39                   182.51                   213.73                   216.90                   218.85                   219.78                   170.48                   182.58                   213.76                   216.92                   218.87                   219.79                   170.78                   183.14                   215.58                   218.93                   221.00                   221.97                   170.53                   182.75                   214.38                   217.60                   219.58                   220.52                   164.48                   176.22                   206.82                   209.97                   211.93                   212.84                   155.74                   166.27                   193.89                   196.73                   198.49                   199.33                   149.00                   157.45                   177.53                   179.42                   180.58                   181.17
12.000                   3.0000                   2.0000                   10000                    1000.0                   75.000                   183.59                   195.84                   227.47                   230.68                   232.66                   233.59                   183.86                   196.29                   228.58                   231.86                   233.88                   234.83                   183.75                   196.37                   229.76                   233.26                   235.44                   236.46                   183.05                   195.34                   227.12                   230.34                   232.34                   233.27                   183.12                   195.39                   227.10                   230.32                   232.31                   233.24                   183.53                   196.15                   229.49                   232.93                   235.07                   236.07                   183.10                   195.50                   227.70                   230.98                   233.00                   233.95                   176.50                   188.44                   219.80                   223.06                   225.08                   226.01                   166.71                   177.37                   205.47                   208.36                   210.14                   210.99                   159.24                   167.76                   188.07                   189.99                   191.16                   191.74