% Model:              batchmodel_COIL_N_12_COIL_kr_1.5_COIL_kh_1_FUNZ_freq_2000_FUNZ_I_eff_1000.mph
% Version:            COMSOL 6.0.0.318
% Date:               Feb 8 2022, 18:03
% Table:              Tabella 1 - GRIGLIA_T
% COIL_N                 COIL_kr                  COIL_kh                  FUNZ_freq                FUNZ_I_eff               Time (s)                 Temperatura (degC), Point: (0, 0)Temperatura (degC), Point: (15, 0)Temperatura (degC), Point: (25.641, 0)Temperatura (degC), Point: (27.821, 0)Temperatura (degC), Point: (29.128, 0)Temperatura (degC), Point: (29.99, 0)Temperatura (degC), Point: (0, 62.5)Temperatura (degC), Point: (15, 62.5)Temperatura (degC), Point: (25.641, 62.5)Temperatura (degC), Point: (27.821, 62.5)Temperatura (degC), Point: (29.128, 62.5)Temperatura (degC), Point: (29.99, 62.5)Temperatura (degC), Point: (0, 125)Temperatura (degC), Point: (15, 125)Temperatura (degC), Point: (25.641, 125)Temperatura (degC), Point: (27.821, 125)Temperatura (degC), Point: (29.128, 125)Temperatura (degC), Point: (29.99, 125)Temperatura (degC), Point: (0, 187.5)Temperatura (degC), Point: (15, 187.5)Temperatura (degC), Point: (25.641, 187.5)Temperatura (degC), Point: (27.821, 187.5)Temperatura (degC), Point: (29.128, 187.5)Temperatura (degC), Point: (29.99, 187.5)Temperatura (degC), Point: (0, 250)Temperatura (degC), Point: (15, 250)Temperatura (degC), Point: (25.641, 250)Temperatura (degC), Point: (27.821, 250)Temperatura (degC), Point: (29.128, 250)Temperatura (degC), Point: (29.99, 250)Temperatura (degC), Point: (0, 312.5)Temperatura (degC), Point: (15, 312.5)Temperatura (degC), Point: (25.641, 312.5)Temperatura (degC), Point: (27.821, 312.5)Temperatura (degC), Point: (29.128, 312.5)Temperatura (degC), Point: (29.99, 312.5)Temperatura (degC), Point: (0, 375)Temperatura (degC), Point: (15, 375)Temperatura (degC), Point: (25.641, 375)Temperatura (degC), Point: (27.821, 375)Temperatura (degC), Point: (29.128, 375)Temperatura (degC), Point: (29.99, 375)Temperatura (degC), Point: (0, 437.5)Temperatura (degC), Point: (15, 437.5)Temperatura (degC), Point: (25.641, 437.5)Temperatura (degC), Point: (27.821, 437.5)Temperatura (degC), Point: (29.128, 437.5)Temperatura (degC), Point: (29.99, 437.5)Temperatura (degC), Point: (0, 468.75)Temperatura (degC), Point: (15, 468.75)Temperatura (degC), Point: (25.641, 468.75)Temperatura (degC), Point: (27.821, 468.75)Temperatura (degC), Point: (29.128, 468.75)Temperatura (degC), Point: (29.99, 468.75)Temperatura (degC), Point: (0, 492.19)Temperatura (degC), Point: (15, 492.19)Temperatura (degC), Point: (25.641, 492.19)Temperatura (degC), Point: (27.821, 492.19)Temperatura (degC), Point: (29.128, 492.19)Temperatura (degC), Point: (29.99, 492.19)
12.000                   1.5000                   1.0000                   2000.0                   1000.0                   0.0000                   20.000                   20.000                   20.000                   20.000                   20.000                   20.021                   20.000                   20.000                   20.000                   20.000                   20.000                   20.027                   20.000                   20.000                   20.000                   20.000                   20.000                   20.032                   20.000                   20.000                   20.000                   20.000                   20.000                   20.022                   20.000                   20.000                   20.000                   20.000                   20.000                   20.024                   20.000                   20.000                   20.000                   20.000                   20.000                   20.034                   20.000                   20.000                   20.000                   20.000                   20.000                   20.024                   20.000                   20.000                   20.000                   20.000                   20.000                   20.021                   20.000                   20.000                   20.000                   20.000                   20.000                   20.025                   20.000                   20.000                   20.000                   20.000                   20.000                   20.027
12.000                   1.5000                   1.0000                   2000.0                   1000.0                   5.0000                   20.480                   21.453                   25.845                   27.507                   28.582                   29.173                   20.615                   21.946                   28.102                   30.438                   31.953                   32.769                   20.680                   22.211                   29.488                   32.295                   34.129                   35.099                   20.498                   21.515                   26.122                   27.863                   28.993                   29.615                   20.542                   21.673                   26.827                   28.792                   30.086                   30.798                   20.702                   22.312                   30.122                   33.213                   35.276                   36.365                   20.549                   21.699                   26.951                   28.950                   30.262                   30.983                   20.480                   21.458                   25.893                   27.582                   28.683                   29.288                   20.549                   21.739                   27.264                   29.361                   30.714                   31.447                   20.639                   21.953                   27.781                   30.017                   31.486                   32.289
12.000                   1.5000                   1.0000                   2000.0                   1000.0                   10.000                   22.602                   24.910                   30.881                   32.628                   33.732                   34.330                   23.226                   26.312                   34.521                   36.963                   38.522                   39.350                   23.514                   27.019                   36.609                   39.527                   41.410                   42.396                   22.683                   25.086                   31.313                   33.137                   34.296                   34.926                   22.892                   25.546                   32.482                   34.534                   35.848                   36.558                   23.610                   27.274                   37.483                   40.668                   42.751                   43.829                   22.918                   25.610                   32.661                   34.746                   36.080                   36.799                   22.586                   24.894                   30.872                   32.625                   33.739                   34.344                   22.878                   25.631                   32.990                   35.185                   36.584                   37.336                   23.236                   26.248                   34.053                   36.388                   37.890                   38.701
12.000                   1.5000                   1.0000                   2000.0                   1000.0                   15.000                   26.312                   29.417                   35.976                   37.797                   38.966                   39.600                   27.540                   31.617                   40.508                   43.040                   44.680                   45.540                   28.068                   32.629                   42.843                   45.835                   47.797                   48.810                   26.484                   29.719                   36.576                   38.485                   39.713                   40.373                   26.888                   30.430                   37.991                   40.100                   41.452                   42.164                   28.245                   32.982                   43.649                   46.759                   48.783                   49.829                   26.950                   30.553                   38.271                   40.431                   41.817                   42.547                   26.274                   29.400                   36.034                   37.884                   39.074                   39.706                   26.782                   30.431                   38.421                   40.702                   42.181                   42.967                   27.474                   31.436                   39.829                   42.208                   43.752                   44.573
12.000                   1.5000                   1.0000                   2000.0                   1000.0                   20.000                   30.468                   34.147                   41.263                   43.190                   44.435                   45.110                   32.273                   37.032                   46.527                   49.165                   50.877                   51.768                   33.007                   38.258                   48.972                   52.043                   54.068                   55.104                   30.736                   34.572                   42.030                   44.056                   45.362                   46.058                   31.318                   35.486                   43.619                   45.820                   47.225                   47.944                   33.256                   38.677                   49.622                   52.637                   54.563                   55.564                   31.424                   35.679                   44.029                   46.298                   47.748                   48.494                   30.412                   34.142                   41.426                   43.413                   44.694                   45.356                   31.093                   35.373                   43.955                   46.345                   47.902                   48.724                   32.115                   36.732                   45.628                   48.068                   49.653                   50.487
12.000                   1.5000                   1.0000                   2000.0                   1000.0                   25.000                   35.564                   39.326                   46.526                   48.459                   49.703                   50.377                   37.687                   42.533                   52.126                   54.773                   56.485                   57.372                   38.530                   43.870                   54.703                   57.789                   59.815                   60.849                   35.882                   39.803                   47.338                   49.363                   50.661                   51.346                   36.547                   40.797                   49.006                   51.206                   52.604                   53.322                   38.819                   44.335                   55.447                   58.514                   60.475                   61.480                   36.682                   41.021                   49.443                   51.709                   53.150                   53.891                   35.395                   39.198                   46.517                   48.488                   49.752                   50.405                   36.168                   40.527                   49.180                   51.570                   53.118                   53.930                   37.543                   42.325                   51.488                   53.963                   55.553                   56.386
12.000                   1.5000                   1.0000                   2000.0                   1000.0                   30.000                   40.659                   44.505                   51.789                   53.728                   54.971                   55.643                   43.100                   48.033                   57.726                   60.382                   62.093                   62.977                   44.053                   49.482                   60.433                   63.534                   65.562                   66.594                   41.028                   45.034                   52.646                   54.670                   55.961                   56.633                   41.776                   46.108                   54.392                   56.592                   57.983                   58.700                   44.383                   49.992                   61.271                   64.391                   66.387                   67.395                   41.939                   46.363                   54.856                   57.119                   58.551                   59.287                   40.379                   44.253                   51.609                   53.564                   54.811                   55.453                   41.243                   45.681                   54.406                   56.794                   58.333                   59.136                   42.972                   47.919                   57.348                   59.859                   61.453                   62.284
12.000                   1.5000                   1.0000                   2000.0                   1000.0                   35.000                   45.755                   49.684                   57.052                   58.997                   60.240                   60.910                   48.514                   53.534                   63.325                   65.991                   67.701                   68.582                   49.576                   55.093                   66.164                   69.280                   71.309                   72.339                   46.174                   50.265                   57.953                   59.978                   61.260                   61.920                   47.004                   51.419                   59.779                   61.978                   63.362                   64.078                   49.946                   55.650                   67.096                   70.268                   72.299                   73.310                   47.197                   51.705                   60.270                   62.529                   63.953                   64.683                   45.363                   49.309                   56.700                   58.640                   59.869                   60.502                   46.318                   50.835                   59.632                   62.018                   63.548                   64.342                   48.400                   53.512                   63.207                   65.755                   67.354                   68.183
12.000                   1.5000                   1.0000                   2000.0                   1000.0                   40.000                   50.971                   54.940                   62.338                   64.281                   65.520                   66.187                   53.964                   59.033                   68.878                   71.549                   73.258                   74.136                   55.123                   60.702                   71.862                   74.991                   77.022                   78.051                   51.436                   55.574                   63.308                   65.333                   66.612                   67.264                   52.324                   56.786                   65.199                   67.406                   68.794                   69.513                   55.527                   61.302                   72.896                   76.122                   78.191                   79.215                   52.540                   57.097                   65.716                   67.984                   69.412                   70.144                   50.475                   54.466                   61.902                   63.845                   65.074                   65.708                   51.471                   56.033                   64.874                   67.262                   68.788                   69.575                   53.801                   58.981                   68.760                   71.314                   72.913                   73.739
12.000                   1.5000                   1.0000                   2000.0                   1000.0                   45.000                   56.217                   60.215                   67.630                   69.569                   70.803                   71.467                   59.423                   64.531                   74.420                   77.094                   78.802                   79.677                   60.676                   66.310                   77.553                   80.693                   82.727                   83.754                   56.728                   60.903                   68.674                   70.700                   71.976                   72.622                   57.667                   62.168                   70.627                   72.844                   74.239                   74.963                   61.112                   66.951                   78.690                   81.971                   84.079                   85.118                   57.903                   62.502                   71.171                   73.449                   74.886                   75.622                   55.618                   59.649                   67.131                   69.082                   70.316                   70.953                   56.645                   61.242                   70.121                   72.511                   74.035                   74.816                   59.194                   64.419                   74.237                   76.790                   78.387                   79.209
12.000                   1.5000                   1.0000                   2000.0                   1000.0                   50.000                   61.463                   65.490                   72.922                   74.858                   76.086                   76.747                   64.882                   70.030                   79.963                   82.639                   84.347                   85.218                   66.229                   71.918                   83.243                   86.395                   88.432                   89.458                   62.019                   66.232                   74.040                   76.067                   77.341                   77.980                   63.010                   67.550                   76.056                   78.282                   79.683                   80.413                   66.697                   72.601                   84.484                   87.819                   89.967                   91.021                   63.267                   67.907                   76.626                   78.914                   80.359                   81.099                   60.762                   64.831                   72.359                   74.319                   75.559                   76.198                   61.818                   66.451                   75.368                   77.760                   79.281                   80.057                   64.587                   69.858                   79.713                   82.266                   83.861                   84.680
12.000                   1.5000                   1.0000                   2000.0                   1000.0                   55.000                   66.763                   70.801                   78.228                   80.157                   81.380                   82.036                   70.324                   75.491                   85.442                   88.120                   89.828                   90.697                   71.757                   77.481                   88.864                   92.026                   94.066                   95.090                   67.355                   71.584                   79.404                   81.430                   82.702                   83.337                   68.374                   72.930                   81.453                   83.682                   85.087                   85.819                   72.241                   78.185                   90.168                   93.543                   95.721                   96.787                   68.634                   73.289                   82.024                   84.315                   85.764                   86.505                   65.941                   70.025                   77.568                   79.531                   80.773                   81.413                   67.004                   71.650                   80.576                   82.967                   84.486                   85.257                   69.933                   75.222                   85.089                   87.640                   89.232                   90.048
12.000                   1.5000                   1.0000                   2000.0                   1000.0                   60.000                   72.100                   76.134                   83.544                   85.464                   86.680                   87.331                   75.755                   80.926                   90.879                   93.558                   95.267                   96.134                   77.269                   83.016                   94.439                   97.608                   99.652                   100.68                   72.720                   76.950                   84.766                   86.790                   88.060                   88.692                   73.752                   78.310                   86.828                   89.057                   90.464                   91.195                   77.758                   83.726                   95.779                   99.184                   101.39                   102.46                   74.003                   78.657                   87.383                   89.673                   91.122                   91.864                   71.143                   75.225                   82.763                   84.725                   85.968                   86.608                   72.198                   76.842                   85.759                   88.146                   89.663                   90.431                   75.248                   80.537                   90.398                   92.946                   94.536                   95.349
12.000                   1.5000                   1.0000                   2000.0                   1000.0                   65.000                   77.437                   81.468                   88.859                   90.772                   91.980                   92.627                   81.186                   86.362                   96.316                   98.995                   100.71                   101.57                   82.782                   88.550                   100.01                   103.19                   105.24                   106.26                   78.086                   82.317                   90.129                   92.150                   93.418                   94.048                   79.130                   83.689                   92.204                   94.433                   95.841                   96.571                   83.274                   89.267                   101.39                   104.82                   107.05                   108.14                   79.371                   84.024                   92.742                   95.031                   96.481                   97.222                   76.345                   80.426                   87.958                   89.920                   91.164                   91.803                   77.393                   82.035                   90.941                   93.326                   94.840                   95.605                   80.563                   85.852                   95.706                   98.252                   99.839                   100.65
12.000                   1.5000                   1.0000                   2000.0                   1000.0                   70.000                   82.774                   86.802                   94.175                   96.079                   97.281                   97.922                   86.618                   91.797                   101.75                   104.43                   106.14                   107.01                   88.294                   94.085                   105.59                   108.77                   110.82                   111.85                   83.451                   87.684                   95.492                   97.511                   98.776                   99.404                   84.508                   89.069                   97.580                   99.808                   101.22                   101.95                   88.790                   94.808                   107.00                   110.47                   112.72                   113.81                   84.740                   89.391                   98.101                   100.39                   101.84                   102.58                   81.547                   85.627                   93.153                   95.115                   96.360                   96.999                   82.587                   87.227                   96.124                   98.505                   100.02                   100.78                   85.878                   91.167                   101.02                   103.56                   105.14                   105.95
12.000                   1.5000                   1.0000                   2000.0                   1000.0                   75.000                   88.111                   92.136                   99.490                   101.39                   102.58                   103.22                   92.049                   97.233                   107.19                   109.87                   111.58                   112.45                   93.806                   99.619                   111.16                   114.36                   116.41                   117.43                   88.816                   93.050                   100.85                   102.87                   104.13                   104.76                   89.886                   94.448                   102.96                   105.18                   106.59                   107.32                   94.306                   100.35                   112.61                   116.11                   118.38                   119.49                   90.108                   94.759                   103.46                   105.75                   107.20                   107.94                   86.749                   90.827                   98.348                   100.31                   101.56                   102.19                   87.782                   92.420                   101.31                   103.68                   105.19                   105.95                   91.194                   96.482                   106.32                   108.86                   110.45                   111.25