% Model:              batchmodel_COIL_N_12_COIL_kr_1.5_COIL_kh_2_FUNZ_freq_2000_FUNZ_I_eff_1000.mph
% Version:            COMSOL 6.0.0.318
% Date:               Feb 8 2022, 18:31
% Table:              Tabella 1 - GRIGLIA_T
% COIL_N                 COIL_kr                  COIL_kh                  FUNZ_freq                FUNZ_I_eff               Time (s)                 Temperatura (degC), Point: (0, 0)Temperatura (degC), Point: (15, 0)Temperatura (degC), Point: (25.641, 0)Temperatura (degC), Point: (27.821, 0)Temperatura (degC), Point: (29.128, 0)Temperatura (degC), Point: (29.99, 0)Temperatura (degC), Point: (0, 62.5)Temperatura (degC), Point: (15, 62.5)Temperatura (degC), Point: (25.641, 62.5)Temperatura (degC), Point: (27.821, 62.5)Temperatura (degC), Point: (29.128, 62.5)Temperatura (degC), Point: (29.99, 62.5)Temperatura (degC), Point: (0, 125)Temperatura (degC), Point: (15, 125)Temperatura (degC), Point: (25.641, 125)Temperatura (degC), Point: (27.821, 125)Temperatura (degC), Point: (29.128, 125)Temperatura (degC), Point: (29.99, 125)Temperatura (degC), Point: (0, 187.5)Temperatura (degC), Point: (15, 187.5)Temperatura (degC), Point: (25.641, 187.5)Temperatura (degC), Point: (27.821, 187.5)Temperatura (degC), Point: (29.128, 187.5)Temperatura (degC), Point: (29.99, 187.5)Temperatura (degC), Point: (0, 250)Temperatura (degC), Point: (15, 250)Temperatura (degC), Point: (25.641, 250)Temperatura (degC), Point: (27.821, 250)Temperatura (degC), Point: (29.128, 250)Temperatura (degC), Point: (29.99, 250)Temperatura (degC), Point: (0, 312.5)Temperatura (degC), Point: (15, 312.5)Temperatura (degC), Point: (25.641, 312.5)Temperatura (degC), Point: (27.821, 312.5)Temperatura (degC), Point: (29.128, 312.5)Temperatura (degC), Point: (29.99, 312.5)Temperatura (degC), Point: (0, 375)Temperatura (degC), Point: (15, 375)Temperatura (degC), Point: (25.641, 375)Temperatura (degC), Point: (27.821, 375)Temperatura (degC), Point: (29.128, 375)Temperatura (degC), Point: (29.99, 375)Temperatura (degC), Point: (0, 437.5)Temperatura (degC), Point: (15, 437.5)Temperatura (degC), Point: (25.641, 437.5)Temperatura (degC), Point: (27.821, 437.5)Temperatura (degC), Point: (29.128, 437.5)Temperatura (degC), Point: (29.99, 437.5)Temperatura (degC), Point: (0, 468.75)Temperatura (degC), Point: (15, 468.75)Temperatura (degC), Point: (25.641, 468.75)Temperatura (degC), Point: (27.821, 468.75)Temperatura (degC), Point: (29.128, 468.75)Temperatura (degC), Point: (29.99, 468.75)Temperatura (degC), Point: (0, 492.19)Temperatura (degC), Point: (15, 492.19)Temperatura (degC), Point: (25.641, 492.19)Temperatura (degC), Point: (27.821, 492.19)Temperatura (degC), Point: (29.128, 492.19)Temperatura (degC), Point: (29.99, 492.19)
12.000                   1.5000                   2.0000                   2000.0                   1000.0                   0.0000                   20.000                   20.000                   20.000                   20.000                   20.000                   20.022                   20.000                   20.000                   20.000                   20.000                   20.000                   20.028                   20.000                   20.000                   20.000                   20.000                   20.000                   20.030                   20.000                   20.000                   20.000                   20.000                   20.000                   20.024                   20.000                   20.000                   20.000                   20.000                   20.000                   20.024                   20.000                   20.000                   20.000                   20.000                   20.000                   20.030                   20.000                   20.000                   20.000                   20.000                   20.000                   20.028                   20.000                   20.000                   20.000                   20.000                   20.000                   20.022                   20.000                   20.000                   20.000                   20.000                   20.000                   20.029                   20.000                   20.000                   20.000                   20.000                   20.000                   20.023
12.000                   1.5000                   2.0000                   2000.0                   1000.0                   5.0000                   20.614                   21.746                   26.717                   28.596                   29.779                   30.399                   20.691                   22.035                   28.161                   30.509                   31.994                   32.761                   20.749                   22.241                   29.133                   31.792                   33.479                   34.338                   20.638                   21.842                   27.274                   29.181                   30.408                   31.058                   20.610                   21.731                   26.554                   28.478                   29.684                   30.338                   20.736                   22.215                   29.059                   31.702                   33.379                   34.234                   20.689                   22.046                   28.257                   30.641                   32.150                   32.928                   20.584                   21.671                   26.508                   28.352                   29.522                   30.137                   20.690                   22.085                   28.588                   31.107                   32.709                   33.531                   20.687                   21.894                   26.577                   28.172                   29.362                   30.021
12.000                   1.5000                   2.0000                   2000.0                   1000.0                   10.000                   23.234                   25.952                   32.673                   34.640                   35.895                   36.569                   23.559                   26.665                   34.622                   37.049                   38.633                   39.476                   23.811                   27.216                   36.067                   38.802                   40.593                   41.536                   23.371                   26.326                   34.188                   36.463                   37.777                   38.481                   23.256                   26.070                   33.434                   35.654                   36.961                   37.667                   23.717                   27.071                   35.834                   38.548                   40.328                   41.265                   23.509                   26.605                   34.601                   37.056                   38.662                   39.516                   23.041                   25.575                   31.914                   33.807                   35.028                   35.684                   23.504                   26.663                   34.963                   37.548                   39.248                   40.148                   23.558                   26.566                   33.818                   35.987                   37.316                   38.007
12.000                   1.5000                   2.0000                   2000.0                   1000.0                   15.000                   27.503                   31.129                   38.722                   40.767                   42.056                   42.740                   28.053                   32.075                   40.856                   43.375                   45.010                   45.870                   28.533                   32.909                   42.592                   45.408                   47.245                   48.201                   27.798                   31.782                   40.891                   43.353                   44.772                   45.507                   27.568                   31.381                   39.964                   42.381                   43.781                   44.510                   28.189                   32.470                   42.026                   44.822                   46.648                   47.600                   27.802                   31.773                   40.539                   43.081                   44.737                   45.608                   26.922                   30.205                   37.200                   39.161                   40.421                   41.096                   27.804                   31.846                   40.913                   43.580                   45.328                   46.244                   28.056                   32.020                   40.234                   42.499                   43.856                   44.553
12.000                   1.5000                   2.0000                   2000.0                   1000.0                   20.000                   32.337                   36.716                   45.245                   47.411                   48.747                   49.446                   33.052                   37.716                   47.126                   49.723                   51.394                   52.266                   33.759                   38.803                   49.099                   51.985                   53.855                   54.820                   32.807                   37.708                   48.924                   51.835                   53.306                   54.051                   32.438                   37.093                   47.278                   50.106                   51.590                   52.329                   33.074                   37.965                   48.084                   50.947                   52.806                   53.768                   32.516                   37.070                   46.389                   49.001                   50.692                   51.575                   31.240                   35.034                   42.527                   44.558                   45.857                   46.549                   32.541                   37.177                   46.800                   49.536                   51.317                   52.244                   33.110                   37.910                   47.473                   50.126                   51.584                   52.275
12.000                   1.5000                   2.0000                   2000.0                   1000.0                   25.000                   37.938                   42.720                   51.780                   54.022                   55.391                   56.093                   38.722                   43.671                   53.367                   55.997                   57.683                   58.556                   39.625                   44.961                   55.536                   58.453                   60.335                   61.301                   38.515                   43.858                   55.737                   58.746                   60.310                   61.056                   38.044                   43.146                   54.034                   56.994                   58.483                   59.212                   38.423                   43.565                   53.939                   56.836                   58.711                   59.676                   37.721                   42.519                   52.092                   54.739                   56.446                   57.332                   36.133                   40.152                   47.886                   49.954                   51.271                   51.966                   37.837                   42.730                   52.612                   55.381                   57.176                   58.106                   38.854                   44.096                   54.285                   56.991                   58.415                   59.083
12.000                   1.5000                   2.0000                   2000.0                   1000.0                   30.000                   43.811                   48.912                   58.380                   60.673                   62.057                   62.757                   44.600                   49.753                   59.654                   62.308                   64.003                   64.878                   45.699                   51.251                   62.034                   64.974                   66.865                   67.831                   44.421                   50.110                   62.556                   65.655                   67.288                   68.037                   43.846                   49.287                   60.709                   63.773                   65.283                   66.009                   43.868                   49.188                   59.751                   62.675                   64.563                   65.530                   43.025                   47.998                   57.757                   60.431                   62.150                   63.040                   41.187                   45.363                   53.258                   55.347                   56.672                   57.366                   43.335                   48.414                   58.490                   61.284                   63.091                   64.022                   44.926                   50.571                   61.353                   64.125                   65.539                   66.192
12.000                   1.5000                   2.0000                   2000.0                   1000.0                   35.000                   50.090                   55.388                   65.078                   67.386                   68.758                   69.447                   50.791                   56.026                   66.009                   68.674                   70.373                   71.246                   52.084                   57.736                   68.623                   71.575                   73.471                   74.436                   50.625                   56.513                   69.383                   72.562                   74.229                   74.981                   49.940                   55.561                   67.262                   70.389                   71.944                   72.675                   49.454                   54.845                   65.496                   68.437                   70.333                   71.301                   48.479                   53.520                   63.364                   66.054                   67.781                   68.672                   46.482                   50.711                   58.647                   60.733                   62.053                   62.740                   49.133                   54.298                   64.466                   67.275                   69.088                   70.019                   51.491                   57.481                   68.802                   71.665                   73.103                   73.749
12.000                   1.5000                   2.0000                   2000.0                   1000.0                   40.000                   56.368                   61.864                   71.775                   74.099                   75.458                   76.138                   56.981                   62.299                   72.364                   75.039                   76.742                   77.614                   58.469                   64.222                   75.212                   78.177                   80.077                   81.040                   56.828                   62.916                   76.210                   79.468                   81.170                   81.926                   56.034                   61.834                   73.816                   77.006                   78.605                   79.342                   55.041                   60.501                   71.242                   74.199                   76.104                   77.073                   53.933                   59.042                   68.972                   71.677                   73.412                   74.304                   51.777                   56.060                   64.037                   66.119                   67.435                   68.113                   54.932                   60.181                   70.443                   73.265                   75.085                   76.016                   58.056                   64.391                   76.251                   79.204                   80.667                   81.307
12.000                   1.5000                   2.0000                   2000.0                   1000.0                   45.000                   62.509                   68.122                   78.143                   80.471                   81.821                   82.493                   63.112                   68.487                   78.614                   81.298                   83.006                   83.877                   64.757                   70.584                   81.653                   84.630                   86.536                   87.498                   62.902                   69.097                   82.547                   85.830                   87.550                   88.308                   62.017                   67.916                   79.989                   83.192                   84.820                   85.561                   60.640                   66.158                   76.974                   79.946                   81.859                   82.829                   59.407                   64.572                   74.573                   77.291                   79.034                   79.927                   57.112                   61.439                   69.454                   71.536                   72.848                   73.522                   60.676                   65.988                   76.325                   79.159                   80.985                   81.916                   64.348                   70.888                   83.026                   86.013                   87.489                   88.125
12.000                   1.5000                   2.0000                   2000.0                   1000.0                   50.000                   68.097                   73.509                   83.193                   85.481                   86.834                   87.512                   69.001                   74.341                   84.443                   87.133                   88.846                   89.718                   70.658                   76.448                   87.506                   90.492                   92.406                   93.370                   68.458                   74.387                   86.924                   90.013                   91.683                   92.440                   67.552                   73.230                   84.644                   87.659                   89.252                   89.994                   66.290                   71.814                   82.652                   85.632                   87.551                   88.521                   64.959                   70.129                   80.148                   82.873                   84.621                   85.512                   62.610                   66.943                   74.979                   77.071                   78.390                   79.068                   66.199                   71.492                   81.826                   84.666                   86.497                   87.428                   69.554                   75.735                   87.101                   89.902                   91.343                   91.987
12.000                   1.5000                   2.0000                   2000.0                   1000.0                   55.000                   73.685                   78.895                   88.243                   90.492                   91.846                   92.530                   74.891                   80.195                   90.272                   92.967                   94.687                   95.560                   76.560                   82.311                   93.358                   96.354                   98.277                   99.242                   74.013                   79.678                   91.300                   94.195                   95.815                   96.572                   73.088                   78.545                   89.298                   92.126                   93.683                   94.426                   71.939                   77.470                   88.330                   91.318                   93.244                   94.214                   70.511                   75.687                   85.724                   88.454                   90.207                   91.098                   68.108                   72.446                   80.505                   82.606                   83.933                   84.615                   71.722                   76.996                   87.327                   90.173                   92.009                   92.940                   74.759                   80.582                   91.176                   93.792                   95.197                   95.849
12.000                   1.5000                   2.0000                   2000.0                   1000.0                   60.000                   79.273                   84.282                   93.292                   95.502                   96.859                   97.548                   80.781                   86.049                   96.101                   98.801                   100.53                   101.40                   82.461                   88.175                   99.210                   102.22                   104.15                   105.11                   79.569                   84.968                   95.677                   98.378                   99.948                   100.70                   78.624                   83.859                   93.952                   96.593                   98.115                   98.859                   77.589                   83.125                   94.007                   97.004                   98.936                   99.906                   76.063                   81.244                   91.299                   94.036                   95.793                   96.684                   73.605                   77.949                   86.031                   88.142                   89.475                   90.162                   77.244                   82.500                   92.827                   95.679                   97.521                   98.453                   79.964                   85.428                   95.251                   97.681                   99.051                   99.710
12.000                   1.5000                   2.0000                   2000.0                   1000.0                   65.000                   84.861                   89.668                   98.342                   100.51                   101.87                   102.57                   86.670                   91.903                   101.93                   104.64                   106.37                   107.24                   88.363                   94.039                   105.06                   108.08                   110.02                   110.99                   85.124                   90.258                   100.05                   102.56                   104.08                   104.83                   84.159                   89.174                   98.607                   101.06                   102.55                   103.29                   83.238                   88.781                   99.685                   102.69                   104.63                   105.60                   81.615                   86.802                   96.874                   99.618                   101.38                   102.27                   79.103                   83.452                   91.557                   93.677                   95.017                   95.709                   82.767                   88.004                   98.328                   101.19                   103.03                   103.97                   85.170                   90.275                   99.327                   101.57                   102.90                   103.57
12.000                   1.5000                   2.0000                   2000.0                   1000.0                   70.000                   90.503                   95.161                   103.60                   105.74                   107.10                   107.80                   92.572                   97.780                   107.80                   110.51                   112.25                   113.12                   94.272                   99.923                   110.95                   113.97                   115.92                   116.89                   90.727                   95.660                   104.78                   107.14                   108.62                   109.37                   89.738                   94.588                   103.54                   105.86                   107.32                   108.06                   88.879                   94.430                   105.36                   108.37                   110.32                   111.29                   87.162                   92.355                   102.45                   105.20                   106.96                   107.86                   84.603                   88.959                   97.090                   99.221                   100.57                   101.26                   88.301                   93.525                   103.85                   106.72                   108.57                   109.50                   90.470                   95.308                   103.79                   105.90                   107.22                   107.89
12.000                   1.5000                   2.0000                   2000.0                   1000.0                   75.000                   96.363                   101.08                   109.66                   111.84                   113.22                   113.93                   98.519                   103.75                   113.81                   116.54                   118.28                   119.16                   100.21                   105.88                   116.96                   119.99                   121.95                   122.92                   96.519                   101.51                   110.88                   113.29                   114.77                   115.51                   95.488                   100.40                   109.60                   111.99                   113.45                   114.19                   94.487                   100.05                   111.02                   114.04                   115.99                   116.96                   92.686                   97.891                   108.01                   110.78                   112.55                   113.44                   90.112                   94.482                   102.65                   104.80                   106.16                   106.86                   93.876                   99.114                   109.48                   112.35                   114.21                   115.14                   96.151                   101.09                   109.82                   112.01                   113.35                   114.04