% Model:              batchmodel_COIL_N_12_COIL_kr_1.5_COIL_kh_1.5_FUNZ_freq_10000_FUNZ_I_eff_2500.mph
% Version:            COMSOL 6.0.0.318
% Date:               Feb 8 2022, 18:45
% Table:              Tabella 1 - GRIGLIA_T
% COIL_N                 COIL_kr                  COIL_kh                  FUNZ_freq                FUNZ_I_eff               Time (s)                 Temperatura (degC), Point: (0, 0)Temperatura (degC), Point: (15, 0)Temperatura (degC), Point: (28.051, 0)Temperatura (degC), Point: (29.025, 0)Temperatura (degC), Point: (29.61, 0)Temperatura (degC), Point: (29.99, 0)Temperatura (degC), Point: (0, 62.5)Temperatura (degC), Point: (15, 62.5)Temperatura (degC), Point: (28.051, 62.5)Temperatura (degC), Point: (29.025, 62.5)Temperatura (degC), Point: (29.61, 62.5)Temperatura (degC), Point: (29.99, 62.5)Temperatura (degC), Point: (0, 125)Temperatura (degC), Point: (15, 125)Temperatura (degC), Point: (28.051, 125)Temperatura (degC), Point: (29.025, 125)Temperatura (degC), Point: (29.61, 125)Temperatura (degC), Point: (29.99, 125)Temperatura (degC), Point: (0, 187.5)Temperatura (degC), Point: (15, 187.5)Temperatura (degC), Point: (28.051, 187.5)Temperatura (degC), Point: (29.025, 187.5)Temperatura (degC), Point: (29.61, 187.5)Temperatura (degC), Point: (29.99, 187.5)Temperatura (degC), Point: (0, 250)Temperatura (degC), Point: (15, 250)Temperatura (degC), Point: (28.051, 250)Temperatura (degC), Point: (29.025, 250)Temperatura (degC), Point: (29.61, 250)Temperatura (degC), Point: (29.99, 250)Temperatura (degC), Point: (0, 312.5)Temperatura (degC), Point: (15, 312.5)Temperatura (degC), Point: (28.051, 312.5)Temperatura (degC), Point: (29.025, 312.5)Temperatura (degC), Point: (29.61, 312.5)Temperatura (degC), Point: (29.99, 312.5)Temperatura (degC), Point: (0, 375)Temperatura (degC), Point: (15, 375)Temperatura (degC), Point: (28.051, 375)Temperatura (degC), Point: (29.025, 375)Temperatura (degC), Point: (29.61, 375)Temperatura (degC), Point: (29.99, 375)Temperatura (degC), Point: (0, 437.5)Temperatura (degC), Point: (15, 437.5)Temperatura (degC), Point: (28.051, 437.5)Temperatura (degC), Point: (29.025, 437.5)Temperatura (degC), Point: (29.61, 437.5)Temperatura (degC), Point: (29.99, 437.5)Temperatura (degC), Point: (0, 468.75)Temperatura (degC), Point: (15, 468.75)Temperatura (degC), Point: (28.051, 468.75)Temperatura (degC), Point: (29.025, 468.75)Temperatura (degC), Point: (29.61, 468.75)Temperatura (degC), Point: (29.99, 468.75)Temperatura (degC), Point: (0, 492.19)Temperatura (degC), Point: (15, 492.19)Temperatura (degC), Point: (28.051, 492.19)Temperatura (degC), Point: (29.025, 492.19)Temperatura (degC), Point: (29.61, 492.19)Temperatura (degC), Point: (29.99, 492.19)
12.000                   1.5000                   1.5000                   10000                    2500.0                   0.0000                   20.000                   20.000                   20.000                   20.000                   20.014                   20.200                   20.000                   20.000                   20.000                   20.000                   20.050                   20.354                   20.000                   20.000                   20.000                   20.000                   20.084                   20.453                   20.000                   20.000                   20.000                   20.000                   20.019                   20.227                   20.000                   20.000                   20.000                   20.000                   20.023                   20.247                   20.000                   20.000                   20.000                   20.000                   20.089                   20.467                   20.000                   20.000                   20.000                   20.000                   20.040                   20.316                   20.000                   20.000                   20.000                   20.000                   20.015                   20.200                   20.000                   20.000                   20.000                   20.000                   20.057                   20.378                   20.000                   20.000                   20.000                   20.000                   20.082                   20.449
12.000                   1.5000                   1.5000                   10000                    2500.0                   5.0000                   23.529                   35.032                   97.401                   104.99                   109.60                   111.66                   25.449                   44.206                   150.05                   164.46                   173.51                   177.10                   26.758                   50.945                   193.88                   213.78                   226.01                   230.56                   23.893                   36.533                   102.92                   111.31                   116.53                   118.83                   24.306                   38.709                   117.48                   127.59                   133.80                   136.39                   26.809                   51.340                   196.96                   217.50                   230.28                   234.91                   24.968                   41.724                   133.69                   146.06                   153.83                   156.96                   23.461                   34.733                   95.348                   102.96                   107.63                   109.70                   25.921                   46.413                   162.89                   178.63                   188.43                   192.24                   30.061                   58.327                   202.78                   222.01                   233.87                   238.19
12.000                   1.5000                   1.5000                   10000                    2500.0                   10.000                   46.395                   72.214                   150.52                   159.17                   164.61                   166.92                   57.856                   98.722                   237.76                   254.56                   264.99                   268.86                   64.646                   114.60                   292.82                   315.56                   329.51                   334.39                   48.917                   77.780                   168.28                   178.57                   185.01                   187.65                   51.442                   83.377                   182.90                   193.91                   200.70                   203.49                   65.013                   115.97                   300.02                   323.69                   338.21                   343.16                   55.149                   92.434                   216.66                   231.34                   240.48                   243.98                   46.392                   72.183                   150.66                   159.31                   164.68                   166.99                   60.630                   104.10                   253.15                   271.38                   282.67                   286.77                   74.561                   129.16                   306.24                   327.71                   340.90                   345.47
12.000                   1.5000                   1.5000                   10000                    2500.0                   15.000                   84.219                   119.22                   215.97                   226.65                   233.39                   236.04                   105.81                   158.73                   320.43                   339.65                   351.45                   355.60                   117.98                   181.32                   387.03                   413.03                   428.74                   433.94                   89.054                   127.73                   236.44                   248.32                   255.71                   258.62                   93.602                   135.50                   252.95                   265.51                   273.03                   275.91                   118.54                   182.77                   390.87                   416.96                   432.79                   437.85                   100.99                   150.09                   297.06                   314.07                   324.60                   328.49                   84.230                   119.16                   215.72                   226.20                   232.66                   235.29                   110.86                   166.08                   335.80                   356.05                   368.47                   372.75                   134.59                   202.07                   401.97                   425.58                   439.98                   444.67
12.000                   1.5000                   1.5000                   10000                    2500.0                   20.000                   130.44                   171.61                   281.39                   293.25                   300.86                   303.68                   160.38                   220.39                   399.26                   420.42                   433.31                   437.54                   176.90                   248.04                   475.51                   503.89                   520.89                   526.24                   137.02                   181.81                   303.12                   316.25                   324.43                   327.53                   143.23                   191.44                   323.45                   337.48                   345.64                   348.60                   177.42                   249.01                   475.30                   503.10                   519.58                   524.68                   153.97                   210.28                   374.09                   392.53                   403.83                   407.89                   130.35                   171.45                   283.05                   295.23                   302.76                   305.71                   167.32                   229.27                   416.24                   438.60                   452.09                   456.51                   199.53                   274.09                   490.77                   515.93                   530.97                   535.71
12.000                   1.5000                   1.5000                   10000                    2500.0                   25.000                   183.97                   229.66                   356.11                   370.01                   378.54                   381.63                   219.14                   284.11                   486.48                   511.16                   525.79                   530.39                   238.36                   314.64                   567.18                   599.63                   618.33                   623.84                   191.54                   240.91                   381.24                   397.06                   406.71                   410.11                   198.70                   251.48                   403.32                   420.52                   430.95                   434.54                   238.74                   315.56                   571.40                   604.65                   623.83                   629.45                   211.81                   272.99                   458.54                   480.51                   493.63                   497.88                   183.59                   229.11                   355.54                   369.42                   377.90                   380.98                   227.30                   293.99                   505.63                   531.97                   547.51                   552.31                   265.21                   343.67                   579.44                   607.98                   624.61                   629.54
12.000                   1.5000                   1.5000                   10000                    2500.0                   30.000                   239.30                   289.91                   435.02                   451.33                   461.13                   464.51                   277.87                   348.32                   574.66                   603.01                   619.50                   624.44                   298.74                   380.46                   657.80                   695.86                   717.46                   723.44                   247.53                   302.13                   462.16                   480.41                   491.37                   495.01                   255.21                   313.19                   486.35                   506.69                   518.88                   522.81                   299.10                   381.60                   663.26                   702.21                   724.35                   730.47                   269.87                   336.30                   544.52                   570.04                   585.03                   589.62                   238.67                   289.06                   433.48                   449.70                   459.52                   462.87                   286.76                   358.65                   593.48                   623.47                   640.94                   646.07                   328.14                   410.68                   664.32                   697.03                   715.74                   720.97
12.000                   1.5000                   1.5000                   10000                    2500.0                   35.000                   294.51                   349.57                   509.71                   527.87                   538.64                   542.21                   334.80                   409.46                   651.40                   682.52                   700.60                   705.79                   356.60                   442.52                   743.33                   788.63                   813.32                   819.71                   302.88                   361.81                   537.14                   557.41                   569.44                   573.24                   310.84                   373.07                   560.23                   582.24                   595.27                   599.33                   356.79                   443.36                   747.45                   793.41                   818.51                   825.02                   326.47                   397.24                   622.29                   650.69                   667.18                   672.04                   293.51                   348.18                   507.12                   525.22                   536.07                   539.59                   343.89                   419.67                   669.09                   702.31                   721.80                   727.24                   386.78                   472.04                   738.85                   776.63                   797.52                   803.02
12.000                   1.5000                   1.5000                   10000                    2500.0                   40.000                   349.71                   409.13                   583.65                   603.55                   615.24                   618.94                   391.46                   470.12                   725.10                   759.38                   779.20                   784.63                   414.01                   503.92                   830.04                   882.07                   909.15                   915.66                   358.18                   421.33                   611.32                   633.73                   646.84                   650.77                   366.36                   432.70                   632.56                   656.10                   669.73                   673.83                   414.02                   504.45                   833.41                   886.08                   913.41                   920.02                   382.86                   457.78                   696.86                   727.66                   745.54                   750.58                   348.36                   407.24                   580.22                   600.08                   611.86                   615.50                   400.66                   480.12                   742.24                   779.51                   801.04                   806.75                   444.72                   532.49                   813.86                   856.27                   878.92                   884.53
12.000                   1.5000                   1.5000                   10000                    2500.0                   45.000                   403.88                   466.79                   653.19                   675.05                   688.03                   691.77                   445.52                   526.75                   790.59                   830.14                   851.92                   857.40                   468.15                   560.77                   919.98                   973.08                   998.71                   1004.3                   412.15                   478.50                   679.16                   703.82                   718.20                   722.26                   420.23                   489.51                   697.34                   722.57                   737.16                   741.31                   468.00                   561.15                   930.68                   986.34                   1012.6                   1018.1                   436.90                   514.52                   758.28                   791.99                   811.61                   816.69                   402.25                   464.59                   649.74                   671.53                   684.30                   688.03                   454.41                   536.20                   811.80                   854.91                   878.16                   883.86                   498.15                   586.63                   890.49                   934.12                   956.24                   961.29
12.000                   1.5000                   1.5000                   10000                    2500.0                   50.000                   454.16                   518.07                   696.89                   716.70                   728.25                   731.55                   495.20                   575.75                   826.92                   859.15                   876.31                   880.54                   518.23                   611.41                   967.00                   1001.4                   1015.8                   1018.5                   462.10                   529.04                   718.05                   739.58                   752.18                   755.72                   469.92                   539.39                   735.27                   758.22                   771.61                   775.28                   518.06                   612.79                   1035.4                   1074.2                   1085.7                   1086.6                   486.56                   563.68                   794.18                   823.89                   840.06                   844.18                   452.37                   515.82                   693.78                   713.50                   724.98                   728.27                   503.74                   584.92                   848.47                   882.05                   899.70                   903.95                   546.71                   633.39                   924.08                   952.74                   966.88                   970.05
12.000                   1.5000                   1.5000                   10000                    2500.0                   55.000                   500.49                   562.98                   729.67                   748.30                   759.32                   762.42                   541.12                   618.41                   856.42                   884.83                   899.99                   903.63                   564.71                   656.85                   1012.5                   1040.5                   1050.2                   1051.2                   508.19                   573.26                   749.13                   769.70                   781.74                   785.04                   515.75                   582.91                   766.64                   788.94                   801.80                   805.23                   564.73                   659.71                   1081.1                   1106.5                   1112.7                   1112.3                   532.40                   606.36                   824.88                   851.83                   866.45                   870.09                   498.63                   560.81                   726.92                   745.39                   756.32                   759.39                   549.33                   627.66                   877.24                   905.59                   920.42                   923.89                   591.04                   675.14                   959.94                   981.83                   991.76                   993.66
12.000                   1.5000                   1.5000                   10000                    2500.0                   60.000                   543.03                   602.23                   757.18                   775.36                   786.11                   789.05                   583.09                   656.11                   884.19                   909.67                   923.16                   926.31                   607.13                   697.12                   1050.0                   1072.6                   1079.0                   1079.0                   550.53                   611.99                   777.63                   798.04                   809.79                   812.89                   557.80                   621.03                   796.20                   818.18                   830.52                   833.70                   607.49                   701.37                   1101.7                   1119.5                   1123.3                   1122.3                   574.35                   643.92                   853.52                   878.36                   891.81                   895.07                   541.16                   600.20                   754.54                   772.49                   783.12                   786.03                   590.96                   665.61                   905.15                   929.55                   942.17                   945.02                   631.10                   712.00                   996.73                   1015.4                   1022.6                   1023.3
12.000                   1.5000                   1.5000                   10000                    2500.0                   65.000                   578.11                   633.09                   780.48                   798.35                   808.67                   811.41                   617.36                   686.22                   907.59                   929.94                   941.67                   944.32                   641.51                   729.31                   1072.5                   1090.7                   1095.2                   1094.6                   585.41                   642.63                   802.66                   822.30                   833.40                   836.25                   592.34                   651.28                   821.52                   842.25                   853.76                   856.66                   642.25                   734.76                   1109.1                   1123.3                   1125.9                   1124.7                   608.66                   673.91                   877.15                   899.67                   911.76                   914.60                   576.32                   631.18                   777.65                   795.32                   805.54                   808.27                   624.87                   695.76                   929.59                   950.69                   961.47                   963.79                   663.53                   745.35                   1043.1                   1058.2                   1062.6                   1062.3
12.000                   1.5000                   1.5000                   10000                    2500.0                   70.000                   610.09                   660.92                   802.63                   819.98                   829.79                   832.32                   648.45                   713.60                   929.51                   948.85                   958.88                   961.03                   672.35                   760.21                   1089.7                   1104.0                   1107.0                   1106.0                   617.21                   670.27                   825.98                   844.63                   855.01                   857.61                   623.81                   678.58                   844.78                   864.12                   874.77                   877.38                   673.42                   766.81                   1114.1                   1125.4                   1127.1                   1125.8                   639.85                   701.01                   898.87                   919.02                   929.74                   932.17                   608.38                   659.12                   799.61                   816.79                   826.53                   829.05                   655.56                   723.39                   952.87                   971.13                   980.18                   981.98                   692.33                   780.55                   1081.6                   1093.1                   1095.2                   1094.1
12.000                   1.5000                   1.5000                   10000                    2500.0                   75.000                   638.46                   685.35                   823.59                   840.09                   849.32                   851.64                   675.87                   737.96                   949.87                   966.45                   974.86                   976.53                   699.05                   790.36                   1100.9                   1112.2                   1114.1                   1112.8                   645.45                   694.53                   847.23                   864.67                   874.31                   876.66                   651.75                   702.53                   865.61                   883.47                   893.26                   895.59                   700.35                   798.07                   1117.3                   1126.4                   1127.4                   1125.9                   667.45                   724.85                   918.49                   936.22                   945.58                   947.63                   636.86                   683.67                   820.42                   836.77                   845.94                   848.26                   682.53                   748.32                   974.97                   990.97                   998.45                   999.71                   716.76                   819.00                   1106.4                   1114.1                   1114.7                   1113.2