% Model:              batchmodel_COIL_N_12_COIL_kr_3_COIL_kh_1_FUNZ_freq_6000_FUNZ_I_eff_4000.mph
% Version:            COMSOL 6.0.0.318
% Date:               Feb 8 2022, 20:18
% Table:              Tabella 1 - GRIGLIA_T
% COIL_N                 COIL_kr                  COIL_kh                  FUNZ_freq                FUNZ_I_eff               Time (s)                 Temperatura (degC), Point: (0, 0)Temperatura (degC), Point: (15, 0)Temperatura (degC), Point: (27.483, 0)Temperatura (degC), Point: (28.742, 0)Temperatura (degC), Point: (29.497, 0)Temperatura (degC), Point: (29.99, 0)Temperatura (degC), Point: (0, 62.5)Temperatura (degC), Point: (15, 62.5)Temperatura (degC), Point: (27.483, 62.5)Temperatura (degC), Point: (28.742, 62.5)Temperatura (degC), Point: (29.497, 62.5)Temperatura (degC), Point: (29.99, 62.5)Temperatura (degC), Point: (0, 125)Temperatura (degC), Point: (15, 125)Temperatura (degC), Point: (27.483, 125)Temperatura (degC), Point: (28.742, 125)Temperatura (degC), Point: (29.497, 125)Temperatura (degC), Point: (29.99, 125)Temperatura (degC), Point: (0, 187.5)Temperatura (degC), Point: (15, 187.5)Temperatura (degC), Point: (27.483, 187.5)Temperatura (degC), Point: (28.742, 187.5)Temperatura (degC), Point: (29.497, 187.5)Temperatura (degC), Point: (29.99, 187.5)Temperatura (degC), Point: (0, 250)Temperatura (degC), Point: (15, 250)Temperatura (degC), Point: (27.483, 250)Temperatura (degC), Point: (28.742, 250)Temperatura (degC), Point: (29.497, 250)Temperatura (degC), Point: (29.99, 250)Temperatura (degC), Point: (0, 312.5)Temperatura (degC), Point: (15, 312.5)Temperatura (degC), Point: (27.483, 312.5)Temperatura (degC), Point: (28.742, 312.5)Temperatura (degC), Point: (29.497, 312.5)Temperatura (degC), Point: (29.99, 312.5)Temperatura (degC), Point: (0, 375)Temperatura (degC), Point: (15, 375)Temperatura (degC), Point: (27.483, 375)Temperatura (degC), Point: (28.742, 375)Temperatura (degC), Point: (29.497, 375)Temperatura (degC), Point: (29.99, 375)Temperatura (degC), Point: (0, 437.5)Temperatura (degC), Point: (15, 437.5)Temperatura (degC), Point: (27.483, 437.5)Temperatura (degC), Point: (28.742, 437.5)Temperatura (degC), Point: (29.497, 437.5)Temperatura (degC), Point: (29.99, 437.5)Temperatura (degC), Point: (0, 468.75)Temperatura (degC), Point: (15, 468.75)Temperatura (degC), Point: (27.483, 468.75)Temperatura (degC), Point: (28.742, 468.75)Temperatura (degC), Point: (29.497, 468.75)Temperatura (degC), Point: (29.99, 468.75)Temperatura (degC), Point: (0, 492.19)Temperatura (degC), Point: (15, 492.19)Temperatura (degC), Point: (27.483, 492.19)Temperatura (degC), Point: (28.742, 492.19)Temperatura (degC), Point: (29.497, 492.19)Temperatura (degC), Point: (29.99, 492.19)
12.000                   3.0000                   1.0000                   6000.0                   4000.0                   0.0000                   20.000                   20.000                   20.000                   20.000                   20.062                   20.328                   20.000                   20.000                   20.000                   20.000                   20.066                   20.340                   20.000                   20.000                   20.000                   20.000                   20.068                   20.345                   20.000                   20.000                   20.000                   20.000                   20.063                   20.330                   20.000                   20.000                   20.000                   20.000                   20.064                   20.333                   20.000                   20.000                   20.000                   20.000                   20.068                   20.346                   20.000                   20.000                   20.000                   20.000                   20.064                   20.333                   20.000                   20.000                   20.000                   20.000                   20.061                   20.325                   20.000                   20.000                   20.000                   20.000                   20.061                   20.326                   20.000                   20.000                   20.000                   20.000                   20.055                   20.307
12.000                   3.0000                   1.0000                   6000.0                   4000.0                   5.0000                   25.810                   49.649                   185.76                   211.28                   226.40                   231.81                   25.971                   50.415                   191.03                   218.49                   235.18                   241.17                   26.045                   50.915                   193.50                   220.76                   237.16                   242.82                   25.890                   50.230                   191.27                   217.37                   232.83                   238.42                   25.883                   50.004                   185.41                   211.33                   226.88                   232.32                   26.154                   51.731                   203.81                   231.91                   249.49                   255.52                   25.917                   50.208                   188.01                   214.59                   230.55                   236.27                   25.733                   49.345                   184.48                   208.07                   222.05                   227.14                   25.568                   48.368                   181.54                   206.45                   220.86                   225.95                   31.673                   54.837                   171.20                   191.30                   202.53                   207.06
12.000                   3.0000                   1.0000                   6000.0                   4000.0                   10.000                   67.824                   124.23                   308.45                   339.61                   358.58                   364.84                   69.252                   127.64                   319.81                   351.87                   371.17                   377.48                   69.331                   127.62                   319.55                   352.11                   371.85                   378.37                   68.904                   126.97                   316.77                   348.25                   367.27                   373.41                   68.876                   126.79                   317.37                   349.57                   369.21                   375.57                   70.726                   131.53                   333.41                   367.06                   387.10                   393.60                   68.606                   125.93                   313.10                   344.50                   363.59                   369.68                   67.331                   123.28                   304.89                   334.76                   352.97                   359.05                   66.071                   119.58                   291.02                   318.83                   335.89                   341.71                   77.235                   127.33                   274.37                   296.61                   310.51                   315.40
12.000                   3.0000                   1.0000                   6000.0                   4000.0                   15.000                   137.36                   210.26                   438.16                   477.50                   500.48                   507.35                   140.29                   215.28                   450.79                   491.61                   515.20                   522.21                   140.07                   215.07                   452.14                   493.47                   517.41                   524.51                   139.38                   213.47                   444.01                   483.55                   506.51                   513.41                   139.68                   214.08                   446.61                   486.73                   510.03                   516.96                   142.83                   219.69                   460.90                   502.58                   526.63                   533.74                   138.55                   212.12                   442.49                   482.26                   505.41                   512.39                   135.47                   206.83                   426.75                   464.12                   486.07                   492.76                   131.66                   199.05                   404.72                   439.32                   459.68                   466.04                   137.23                   199.45                   370.05                   396.46                   412.40                   417.58
12.000                   3.0000                   1.0000                   6000.0                   4000.0                   20.000                   214.17                   299.28                   567.29                   614.42                   640.99                   648.37                   217.98                   304.88                   579.50                   628.03                   655.11                   662.57                   217.66                   304.93                   582.35                   631.61                   659.23                   666.85                   216.52                   302.29                   571.62                   618.76                   645.23                   652.63                   217.21                   303.44                   575.02                   622.87                   649.77                   657.20                   221.00                   309.29                   588.99                   638.54                   666.26                   673.89                   215.37                   300.93                   570.93                   618.34                   644.96                   652.46                   210.17                   292.64                   547.85                   591.66                   616.34                   623.44                   202.91                   279.98                   514.35                   553.83                   576.14                   582.75                   203.04                   273.11                   462.86                   492.16                   509.46                   514.77
12.000                   3.0000                   1.0000                   6000.0                   4000.0                   25.000                   292.44                   385.73                   679.99                   735.24                   765.46                   773.28                   296.40                   391.06                   690.59                   747.40                   778.14                   786.05                   296.19                   391.38                   693.69                   751.27                   782.59                   790.63                   294.65                   388.28                   683.38                   738.79                   768.93                   776.79                   295.58                   389.63                   686.48                   742.49                   773.07                   780.92                   299.42                   395.12                   698.52                   756.35                   787.70                   795.74                   293.40                   387.01                   682.93                   738.59                   768.76                   776.67                   286.19                   376.59                   659.08                   710.52                   738.80                   746.35                   275.07                   359.05                   616.62                   661.33                   685.90                   692.70                   270.45                   345.69                   549.85                   581.57                   599.92                   605.29
12.000                   3.0000                   1.0000                   6000.0                   4000.0                   30.000                   367.58                   465.71                   783.67                   850.40                   884.78                   892.84                   371.43                   470.86                   798.93                   868.96                   904.02                   912.15                   371.40                   471.48                   804.15                   875.57                   911.12                   919.29                   369.53                   467.90                   787.97                   855.46                   889.89                   897.96                   370.59                   469.37                   792.55                   861.06                   895.88                   903.97                   374.30                   474.65                   809.40                   881.40                   916.94                   925.05                   368.29                   466.78                   788.41                   856.50                   891.02                   899.10                   359.41                   454.62                   757.11                   818.27                   850.91                   858.85                   344.82                   433.39                   706.59                   758.11                   786.35                   793.61                   336.26                   415.09                   629.57                   663.55                   683.00                   688.41
12.000                   3.0000                   1.0000                   6000.0                   4000.0                   35.000                   438.67                   539.68                   892.78                   963.37                   995.78                   1002.5                   442.35                   544.92                   914.83                   987.11                   1019.2                   1025.6                   442.52                   545.86                   924.16                   997.91                   1029.9                   1036.0                   440.36                   541.64                   898.11                   968.85                   1001.2                   1007.8                   441.48                   543.24                   904.64                   975.79                   1008.0                   1014.6                   445.03                   548.59                   931.33                   1005.6                   1037.0                   1042.8                   439.20                   540.76                   901.07                   972.87                   1005.5                   1012.2                   428.99                   527.17                   861.73                   932.12                   965.43                   972.64                   411.50                   502.70                   791.16                   852.79                   884.68                   892.21                   399.72                   480.61                   698.90                   733.83                   753.89                   759.25
12.000                   3.0000                   1.0000                   6000.0                   4000.0                   40.000                   503.04                   603.95                   961.04                   1016.3                   1038.9                   1042.7                   506.72                   608.89                   948.52                   994.97                   1015.6                   1019.4                   507.27                   611.88                   1006.8                   1055.2                   1069.7                   1070.8                   504.55                   605.65                   966.11                   1021.8                   1044.0                   1047.6                   505.72                   607.17                   964.12                   1017.9                   1039.7                   1043.4                   509.57                   615.53                   1075.3                   1116.4                   1125.8                   1125.4                   503.50                   604.77                   952.64                   1004.7                   1027.2                   1031.3                   492.20                   591.16                   947.67                   1008.3                   1034.0                   1038.7                   472.24                   564.28                   874.30                   935.28                   964.48                   970.78                   457.95                   538.68                   748.18                   783.49                   803.79                   808.93
12.000                   3.0000                   1.0000                   6000.0                   4000.0                   45.000                   560.50                   657.99                   999.76                   1037.4                   1050.4                   1051.7                   564.08                   660.66                   950.42                   982.13                   996.75                   999.42                   565.57                   668.14                   1045.7                   1077.7                   1086.1                   1085.8                   561.76                   658.85                   1014.7                   1057.5                   1070.7                   1071.7                   562.93                   660.06                   995.50                   1033.4                   1046.6                   1048.0                   567.91                   673.56                   1099.4                   1124.5                   1129.4                   1128.1                   560.73                   656.77                   969.10                   1008.4                   1025.5                   1028.4                   549.30                   647.10                   1048.5                   1090.5                   1101.1                   1101.1                   527.16                   617.64                   934.59                   986.42                   1010.1                   1014.7                   510.30                   588.30                   792.00                   828.02                   847.53                   852.21
12.000                   3.0000                   1.0000                   6000.0                   4000.0                   50.000                   609.66                   702.97                   1045.4                   1073.1                   1080.2                   1079.8                   612.67                   701.40                   960.79                   985.79                   997.34                   999.28                   615.35                   713.41                   1069.6                   1093.0                   1098.3                   1097.3                   610.43                   701.92                   1042.5                   1073.8                   1082.3                   1082.1                   611.56                   702.72                   1017.1                   1046.4                   1055.7                   1056.1                   617.75                   719.65                   1103.4                   1122.1                   1125.3                   1123.7                   609.19                   697.55                   978.08                   1009.4                   1023.2                   1025.4                   599.16                   694.20                   1071.9                   1099.8                   1106.1                   1105.2                   575.85                   663.55                   980.84                   1020.8                   1036.3                   1038.5                   556.62                   629.95                   829.36                   862.87                   880.60                   884.67
12.000                   3.0000                   1.0000                   6000.0                   4000.0                   55.000                   651.74                   741.94                   1071.8                   1091.4                   1095.4                   1094.2                   653.87                   735.39                   976.57                   996.96                   1006.1                   1007.3                   657.59                   752.35                   1083.6                   1101.2                   1104.6                   1103.1                   651.90                   738.32                   1056.0                   1079.5                   1085.3                   1084.5                   652.92                   738.43                   1032.1                   1055.6                   1062.5                   1062.3                   659.92                   759.27                   1104.0                   1118.8                   1120.9                   1119.1                   650.27                   731.04                   985.07                   1009.7                   1020.4                   1021.9                   642.27                   733.38                   1076.8                   1098.0                   1102.6                   1101.4                   618.96                   703.59                   1025.8                   1057.5                   1067.1                   1067.4                   597.69                   665.97                   862.54                   893.64                   909.88                   913.43
12.000                   3.0000                   1.0000                   6000.0                   4000.0                   60.000                   683.83                   777.54                   1081.3                   1096.4                   1099.0                   1097.4                   685.07                   767.35                   997.61                   1015.0                   1022.0                   1022.4                   689.19                   788.50                   1089.1                   1103.0                   1105.2                   1103.5                   683.50                   771.73                   1062.2                   1080.7                   1084.8                   1083.7                   684.31                   771.00                   1042.9                   1062.2                   1067.5                   1066.8                   691.19                   795.26                   1102.0                   1114.2                   1115.6                   1113.7                   681.58                   761.47                   997.19                   1017.2                   1025.3                   1026.1                   675.65                   767.50                   1076.9                   1094.3                   1097.7                   1096.3                   654.00                   737.80                   1054.2                   1079.1                   1085.4                   1084.8                   631.43                   695.01                   890.61                   919.19                   933.95                   937.04
12.000                   3.0000                   1.0000                   6000.0                   4000.0                   65.000                   710.94                   812.08                   1084.7                   1096.8                   1098.5                   1096.7                   711.37                   799.47                   1021.2                   1036.4                   1041.3                   1040.9                   715.47                   823.63                   1091.2                   1102.3                   1103.6                   1101.8                   710.24                   804.58                   1065.9                   1080.6                   1083.5                   1082.2                   710.78                   803.05                   1052.5                   1068.2                   1072.0                   1071.0                   717.03                   829.56                   1098.9                   1109.0                   1109.9                   1107.9                   708.12                   791.55                   1012.7                   1029.1                   1034.9                   1035.0                   704.14                   800.12                   1075.4                   1089.7                   1092.3                   1090.8                   685.02                   769.77                   1074.3                   1093.4                   1097.4                   1096.2                   661.59                   720.75                   915.96                   941.80                   955.05                   957.68
12.000                   3.0000                   1.0000                   6000.0                   4000.0                   70.000                   732.24                   843.76                   1085.3                   1095.3                   1096.4                   1094.6                   732.29                   832.55                   1042.5                   1055.2                   1058.5                   1057.5                   737.18                   855.37                   1092.1                   1101.2                   1101.9                   1100.0                   731.14                   836.34                   1070.1                   1082.0                   1084.0                   1082.4                   731.58                   834.80                   1061.3                   1074.0                   1076.6                   1075.3                   738.77                   860.20                   1097.0                   1105.5                   1106.0                   1104.0                   728.69                   823.52                   1032.5                   1046.3                   1050.4                   1049.7                   725.55                   831.22                   1075.5                   1087.4                   1089.3                   1087.7                   708.09                   802.20                   1083.8                   1098.9                   1101.5                   1100.0                   685.56                   743.53                   935.71                   958.62                   970.26                   972.42
12.000                   3.0000                   1.0000                   6000.0                   4000.0                   75.000                   753.24                   874.52                   1085.5                   1093.7                   1094.3                   1092.4                   753.13                   865.61                   1062.5                   1072.8                   1074.5                   1073.0                   759.03                   886.08                   1093.0                   1100.3                   1100.5                   1098.5                   751.75                   867.63                   1074.4                   1083.8                   1085.0                   1083.3                   752.15                   866.29                   1069.9                   1079.8                   1081.3                   1079.6                   760.77                   889.81                   1095.8                   1102.7                   1102.8                   1100.8                   748.89                   855.76                   1052.4                   1063.8                   1066.3                   1065.0                   746.16                   861.77                   1076.3                   1086.0                   1087.2                   1085.5                   729.47                   834.49                   1090.8                   1102.4                   1103.9                   1102.1                   707.65                   766.01                   954.08                   974.01                   984.02                   985.71