% Model:              batchmodel_COIL_N_12_COIL_kr_1.5_COIL_kh_2_FUNZ_freq_10000_FUNZ_I_eff_2500.mph
% Version:            COMSOL 6.0.0.318
% Date:               Feb 8 2022, 18:55
% Table:              Tabella 1 - GRIGLIA_T
% COIL_N                 COIL_kr                  COIL_kh                  FUNZ_freq                FUNZ_I_eff               Time (s)                 Temperatura (degC), Point: (0, 0)Temperatura (degC), Point: (15, 0)Temperatura (degC), Point: (28.051, 0)Temperatura (degC), Point: (29.025, 0)Temperatura (degC), Point: (29.61, 0)Temperatura (degC), Point: (29.99, 0)Temperatura (degC), Point: (0, 62.5)Temperatura (degC), Point: (15, 62.5)Temperatura (degC), Point: (28.051, 62.5)Temperatura (degC), Point: (29.025, 62.5)Temperatura (degC), Point: (29.61, 62.5)Temperatura (degC), Point: (29.99, 62.5)Temperatura (degC), Point: (0, 125)Temperatura (degC), Point: (15, 125)Temperatura (degC), Point: (28.051, 125)Temperatura (degC), Point: (29.025, 125)Temperatura (degC), Point: (29.61, 125)Temperatura (degC), Point: (29.99, 125)Temperatura (degC), Point: (0, 187.5)Temperatura (degC), Point: (15, 187.5)Temperatura (degC), Point: (28.051, 187.5)Temperatura (degC), Point: (29.025, 187.5)Temperatura (degC), Point: (29.61, 187.5)Temperatura (degC), Point: (29.99, 187.5)Temperatura (degC), Point: (0, 250)Temperatura (degC), Point: (15, 250)Temperatura (degC), Point: (28.051, 250)Temperatura (degC), Point: (29.025, 250)Temperatura (degC), Point: (29.61, 250)Temperatura (degC), Point: (29.99, 250)Temperatura (degC), Point: (0, 312.5)Temperatura (degC), Point: (15, 312.5)Temperatura (degC), Point: (28.051, 312.5)Temperatura (degC), Point: (29.025, 312.5)Temperatura (degC), Point: (29.61, 312.5)Temperatura (degC), Point: (29.99, 312.5)Temperatura (degC), Point: (0, 375)Temperatura (degC), Point: (15, 375)Temperatura (degC), Point: (28.051, 375)Temperatura (degC), Point: (29.025, 375)Temperatura (degC), Point: (29.61, 375)Temperatura (degC), Point: (29.99, 375)Temperatura (degC), Point: (0, 437.5)Temperatura (degC), Point: (15, 437.5)Temperatura (degC), Point: (28.051, 437.5)Temperatura (degC), Point: (29.025, 437.5)Temperatura (degC), Point: (29.61, 437.5)Temperatura (degC), Point: (29.99, 437.5)Temperatura (degC), Point: (0, 468.75)Temperatura (degC), Point: (15, 468.75)Temperatura (degC), Point: (28.051, 468.75)Temperatura (degC), Point: (29.025, 468.75)Temperatura (degC), Point: (29.61, 468.75)Temperatura (degC), Point: (29.99, 468.75)Temperatura (degC), Point: (0, 492.19)Temperatura (degC), Point: (15, 492.19)Temperatura (degC), Point: (28.051, 492.19)Temperatura (degC), Point: (29.025, 492.19)Temperatura (degC), Point: (29.61, 492.19)Temperatura (degC), Point: (29.99, 492.19)
12.000                   1.5000                   2.0000                   10000                    2500.0                   0.0000                   20.000                   20.000                   20.000                   20.000                   20.018                   20.219                   20.000                   20.000                   20.000                   20.000                   20.051                   20.359                   20.000                   20.000                   20.000                   20.000                   20.072                   20.422                   20.000                   20.000                   20.000                   20.000                   20.027                   20.261                   20.000                   20.000                   20.000                   20.000                   20.025                   20.254                   20.000                   20.000                   20.000                   20.000                   20.071                   20.420                   20.000                   20.000                   20.000                   20.000                   20.054                   20.368                   20.000                   20.000                   20.000                   20.000                   20.018                   20.218                   20.000                   20.000                   20.000                   20.000                   20.066                   20.408                   20.000                   20.000                   20.000                   20.000                   20.061                   20.394
12.000                   1.5000                   2.0000                   10000                    2500.0                   5.0000                   23.363                   34.989                   96.436                   104.38                   109.33                   111.56                   24.717                   42.150                   141.60                   155.73                   164.70                   168.33                   25.435                   45.854                   165.86                   183.14                   194.02                   198.21                   23.755                   37.237                   110.46                   120.42                   126.81                   129.59                   23.597                   36.423                   106.94                   116.43                   122.44                   125.05                   25.384                   45.607                   164.38                   181.57                   192.39                   196.57                   24.672                   41.976                   142.61                   157.18                   166.45                   170.21                   23.195                   34.321                   94.155                   102.06                   107.03                   109.26                   25.323                   45.214                   161.05                   177.58                   187.93                   191.98                   26.191                   47.430                   158.45                   173.75                   183.42                   187.24
12.000                   1.5000                   2.0000                   10000                    2500.0                   10.000                   46.363                   74.024                   160.54                   170.31                   176.20                   178.70                   54.576                   94.109                   230.80                   247.31                   257.55                   261.38                   58.946                   104.63                   269.67                   290.22                   302.66                   307.11                   48.763                   80.006                   179.94                   191.15                   197.87                   200.41                   48.135                   78.817                   177.90                   188.99                   195.82                   198.55                   58.617                   103.98                   267.51                   288.00                   300.21                   304.61                   54.621                   94.643                   235.17                   252.27                   262.76                   266.61                   45.721                   72.964                   159.82                   169.65                   175.54                   177.96                   58.268                   102.49                   261.47                   281.22                   293.16                   297.45                   64.893                   111.39                   260.58                   278.29                   289.21                   293.21
12.000                   1.5000                   2.0000                   10000                    2500.0                   15.000                   88.218                   125.59                   231.80                   243.41                   250.31                   253.06                   104.05                   155.54                   318.83                   338.29                   350.12                   354.27                   112.45                   171.34                   368.15                   392.26                   406.59                   411.35                   92.443                   133.63                   254.19                   267.63                   275.57                   278.47                   91.762                   132.79                   253.69                   266.83                   274.71                   277.73                   111.81                   170.35                   365.38                   389.23                   403.04                   407.73                   104.62                   157.29                   327.59                   348.10                   360.55                   364.78                   87.434                   124.80                   233.54                   245.55                   252.53                   255.23                   111.51                   168.39                   357.79                   380.83                   394.30                   398.86                   126.65                   185.02                   358.66                   378.92                   391.12                   395.30
12.000                   1.5000                   2.0000                   10000                    2500.0                   20.000                   138.40                   183.18                   307.58                   320.97                   329.01                   332.02                   160.21                   220.04                   405.94                   428.14                   441.43                   445.82                   171.83                   239.77                   462.70                   490.19                   506.41                   511.40                   143.66                   192.28                   333.08                   348.93                   358.34                   361.70                   143.06                   191.60                   332.48                   348.26                   357.78                   361.18                   170.83                   238.29                   458.05                   484.66                   500.10                   505.07                   161.34                   222.69                   416.68                   440.13                   454.24                   458.67                   137.51                   182.34                   309.27                   323.20                   331.38                   334.41                   171.05                   236.54                   450.04                   476.05                   491.06                   495.81                   193.25                   259.20                   452.92                   475.48                   488.88                   493.20
12.000                   1.5000                   2.0000                   10000                    2500.0                   25.000                   192.61                   242.88                   382.66                   397.67                   406.67                   409.88                   218.52                   284.46                   489.44                   514.00                   528.47                   533.01                   232.25                   306.65                   550.29                   581.15                   599.00                   604.11                   198.35                   252.51                   408.57                   425.95                   436.02                   439.56                   197.75                   251.79                   408.53                   426.31                   436.93                   440.50                   230.84                   304.60                   543.53                   572.92                   590.02                   595.19                   219.97                   287.51                   500.38                   526.32                   541.73                   546.27                   191.77                   242.21                   384.31                   399.92                   409.17                   412.43                   231.84                   303.42                   535.59                   564.22                   580.50                   585.37                   258.84                   329.79                   538.80                   563.38                   577.88                   582.32
12.000                   1.5000                   2.0000                   10000                    2500.0                   30.000                   247.96                   302.93                   456.56                   473.05                   482.89                   486.25                   277.20                   348.47                   571.01                   597.79                   613.35                   618.03                   292.56                   372.46                   634.42                   668.65                   688.01                   693.17                   254.00                   312.92                   481.73                   500.19                   510.50                   514.07                   253.36                   312.13                   482.85                   502.29                   513.76                   517.41                   290.75                   369.88                   625.90                   658.14                   676.93                   682.29                   278.90                   351.75                   581.57                   609.86                   626.50                   631.15                   247.32                   302.67                   458.95                   476.15                   486.40                   489.85                   292.60                   369.35                   617.78                   648.82                   666.24                   671.20                   323.56                   398.49                   620.69                   647.21                   662.78                   667.32
12.000                   1.5000                   2.0000                   10000                    2500.0                   35.000                   302.89                   361.39                   526.39                   544.24                   554.88                   558.35                   333.99                   408.76                   643.13                   671.97                   688.78                   693.64                   350.08                   433.34                   708.24                   747.29                   768.57                   773.84                   309.17                   371.83                   553.61                   573.95                   584.59                   588.11                   308.35                   370.71                   553.52                   574.74                   586.90                   590.60                   347.92                   430.30                   697.12                   733.17                   753.91                   759.48                   335.80                   412.12                   653.48                   684.21                   702.24                   707.00                   302.40                   361.29                   527.69                   545.80                   556.33                   559.77                   350.33                   429.93                   686.04                   719.49                   738.09                   743.18                   383.61                   460.57                   687.41                   715.71                   732.33                   737.02
12.000                   1.5000                   2.0000                   10000                    2500.0                   40.000                   357.70                   419.35                   594.98                   614.16                   625.59                   629.15                   390.20                   467.93                   712.38                   743.24                   761.35                   766.40                   406.76                   492.73                   778.93                   823.23                   846.58                   851.96                   364.18                   430.28                   625.09                   647.57                   658.55                   662.01                   363.16                   428.76                   623.08                   646.13                   658.92                   662.65                   404.27                   489.26                   764.97                   805.09                   827.89                   833.68                   392.08                   471.33                   722.59                   755.78                   775.24                   780.11                   357.35                   419.34                   594.64                   613.45                   624.05                   627.42                   407.14                   488.88                   750.09                   785.94                   805.73                   810.96                   442.24                   520.63                   749.53                   779.56                   797.23                   802.08
12.000                   1.5000                   2.0000                   10000                    2500.0                   45.000                   408.36                   471.90                   657.01                   678.73                   691.62                   695.42                   440.90                   519.98                   780.16                   816.60                   836.74                   841.93                   458.04                   546.83                   870.41                   911.97                   932.39                   936.87                   414.94                   482.92                   685.30                   710.32                   724.09                   728.07                   413.71                   481.13                   682.11                   707.09                   721.53                   725.59                   454.84                   541.52                   851.95                   896.67                   920.05                   925.55                   442.76                   523.31                   791.82                   829.95                   850.93                   856.05                   408.12                   471.92                   656.60                   678.06                   690.51                   694.20                   457.66                   540.59                   831.82                   873.64                   895.42                   900.71                   489.95                   568.46                   814.89                   848.62                   867.22                   871.92
12.000                   1.5000                   2.0000                   10000                    2500.0                   50.000                   457.23                   521.87                   711.52                   734.94                   748.77                   752.67                   489.72                   569.20                   838.99                   878.33                   899.15                   904.21                   507.55                   598.44                   953.61                   990.97                   1007.5                   1010.7                   463.92                   532.92                   738.93                   765.76                   781.55                   785.85                   462.51                   530.91                   734.67                   760.96                   776.47                   780.71                   503.68                   591.53                   930.16                   975.47                   997.23                   1001.9                   491.56                   572.46                   851.21                   891.45                   912.60                   917.66                   457.08                   521.90                   711.13                   734.39                   748.14                   752.02                   506.27                   589.82                   903.04                   946.67                   968.43                   973.36                   535.27                   613.17                   870.47                   905.24                   923.49                   927.79
12.000                   1.5000                   2.0000                   10000                    2500.0                   55.000                   501.91                   565.64                   745.57                   767.86                   780.94                   784.50                   534.47                   611.94                   871.77                   905.10                   922.49                   926.60                   553.26                   644.07                   1006.9                   1037.8                   1048.7                   1050.0                   508.79                   576.66                   776.10                   802.45                   817.34                   821.24                   507.25                   574.55                   770.92                   796.64                   811.27                   815.12                   548.92                   636.66                   977.42                   1011.3                   1025.4                   1027.8                   536.32                   615.18                   881.50                   914.85                   932.14                   936.18                   501.80                   565.63                   745.01                   767.07                   780.05                   783.60                   550.92                   633.65                   938.52                   970.77                   986.34                   989.68                   576.39                   651.89                   896.31                   923.68                   937.87                   941.09
12.000                   1.5000                   2.0000                   10000                    2500.0                   60.000                   543.40                   604.70                   776.63                   798.44                   810.92                   814.22                   575.79                   650.19                   899.39                   928.00                   942.87                   946.28                   595.34                   684.84                   1046.7                   1071.2                   1078.4                   1078.4                   550.42                   615.69                   810.18                   835.40                   849.32                   852.85                   548.79                   613.53                   804.50                   829.23                   842.96                   846.46                   590.83                   677.50                   1021.0                   1047.6                   1056.6                   1057.4                   577.67                   653.46                   907.47                   935.62                   950.16                   953.47                   543.30                   604.61                   775.73                   797.31                   809.68                   812.96                   592.09                   673.25                   973.60                   999.21                   1010.4                   1012.4                   614.11                   686.39                   919.33                   941.32                   952.66                   955.14
12.000                   1.5000                   2.0000                   10000                    2500.0                   65.000                   581.01                   638.95                   805.76                   826.96                   838.82                   841.86                   612.95                   683.64                   923.07                   947.76                   960.56                   963.39                   633.05                   720.41                   1073.9                   1092.8                   1097.4                   1096.8                   588.09                   649.89                   840.75                   864.48                   877.44                   880.63                   586.43                   647.72                   834.94                   858.33                   871.14                   874.32                   628.63                   713.48                   1055.6                   1076.7                   1082.5                   1082.3                   614.85                   686.98                   930.54                   954.57                   966.93                   969.63                   580.89                   638.78                   804.43                   825.39                   837.14                   840.16                   629.06                   707.99                   1007.8                   1029.6                   1037.8                   1038.7                   647.83                   716.39                   941.62                   959.71                   968.96                   970.88
12.000                   1.5000                   2.0000                   10000                    2500.0                   70.000                   614.53                   668.79                   832.84                   852.97                   864.10                   866.86                   645.82                   712.65                   944.11                   965.20                   976.00                   978.28                   666.15                   752.61                   1090.7                   1105.2                   1108.1                   1107.1                   621.63                   679.61                   867.39                   889.40                   901.32                   904.16                   619.98                   677.47                   861.73                   883.51                   895.34                   898.18                   661.99                   745.86                   1078.8                   1095.2                   1098.9                   1098.1                   647.73                   716.12                   952.05                   972.44                   982.73                   984.85                   614.39                   668.52                   831.07                   850.97                   861.98                   864.72                   661.63                   738.88                   1038.9                   1057.8                   1063.7                   1063.7                   677.35                   743.41                   964.35                   979.48                   986.92                   988.29
12.000                   1.5000                   2.0000                   10000                    2500.0                   75.000                   643.99                   694.40                   857.07                   875.83                   886.10                   888.57                   674.40                   738.33                   963.83                   981.67                   990.51                   992.21                   694.25                   783.72                   1099.7                   1110.9                   1112.8                   1111.5                   651.07                   705.05                   889.86                   909.91                   920.67                   923.15                   649.44                   702.97                   884.53                   904.45                   915.19                   917.68                   690.53                   776.84                   1092.3                   1104.8                   1107.2                   1106.0                   676.29                   742.12                   973.24                   990.55                   998.87                   1000.4                   643.80                   694.04                   854.93                   873.47                   883.64                   886.09                   689.48                   768.08                   1063.8                   1079.7                   1083.8                   1083.2                   702.19                   769.99                   988.04                   1001.1                   1006.9                   1007.6