% Model:              batchmodel_COIL_N_12_COIL_kr_3_COIL_kh_2_FUNZ_freq_6000_FUNZ_I_eff_1000.mph
% Version:            COMSOL 6.0.0.318
% Date:               Feb 8 2022, 20:24
% Table:              Tabella 1 - GRIGLIA_T
% COIL_N                 COIL_kr                  COIL_kh                  FUNZ_freq                FUNZ_I_eff               Time (s)                 Temperatura (degC), Point: (0, 0)Temperatura (degC), Point: (15, 0)Temperatura (degC), Point: (27.483, 0)Temperatura (degC), Point: (28.742, 0)Temperatura (degC), Point: (29.497, 0)Temperatura (degC), Point: (29.99, 0)Temperatura (degC), Point: (0, 62.5)Temperatura (degC), Point: (15, 62.5)Temperatura (degC), Point: (27.483, 62.5)Temperatura (degC), Point: (28.742, 62.5)Temperatura (degC), Point: (29.497, 62.5)Temperatura (degC), Point: (29.99, 62.5)Temperatura (degC), Point: (0, 125)Temperatura (degC), Point: (15, 125)Temperatura (degC), Point: (27.483, 125)Temperatura (degC), Point: (28.742, 125)Temperatura (degC), Point: (29.497, 125)Temperatura (degC), Point: (29.99, 125)Temperatura (degC), Point: (0, 187.5)Temperatura (degC), Point: (15, 187.5)Temperatura (degC), Point: (27.483, 187.5)Temperatura (degC), Point: (28.742, 187.5)Temperatura (degC), Point: (29.497, 187.5)Temperatura (degC), Point: (29.99, 187.5)Temperatura (degC), Point: (0, 250)Temperatura (degC), Point: (15, 250)Temperatura (degC), Point: (27.483, 250)Temperatura (degC), Point: (28.742, 250)Temperatura (degC), Point: (29.497, 250)Temperatura (degC), Point: (29.99, 250)Temperatura (degC), Point: (0, 312.5)Temperatura (degC), Point: (15, 312.5)Temperatura (degC), Point: (27.483, 312.5)Temperatura (degC), Point: (28.742, 312.5)Temperatura (degC), Point: (29.497, 312.5)Temperatura (degC), Point: (29.99, 312.5)Temperatura (degC), Point: (0, 375)Temperatura (degC), Point: (15, 375)Temperatura (degC), Point: (27.483, 375)Temperatura (degC), Point: (28.742, 375)Temperatura (degC), Point: (29.497, 375)Temperatura (degC), Point: (29.99, 375)Temperatura (degC), Point: (0, 437.5)Temperatura (degC), Point: (15, 437.5)Temperatura (degC), Point: (27.483, 437.5)Temperatura (degC), Point: (28.742, 437.5)Temperatura (degC), Point: (29.497, 437.5)Temperatura (degC), Point: (29.99, 437.5)Temperatura (degC), Point: (0, 468.75)Temperatura (degC), Point: (15, 468.75)Temperatura (degC), Point: (27.483, 468.75)Temperatura (degC), Point: (28.742, 468.75)Temperatura (degC), Point: (29.497, 468.75)Temperatura (degC), Point: (29.99, 468.75)Temperatura (degC), Point: (0, 492.19)Temperatura (degC), Point: (15, 492.19)Temperatura (degC), Point: (27.483, 492.19)Temperatura (degC), Point: (28.742, 492.19)Temperatura (degC), Point: (29.497, 492.19)Temperatura (degC), Point: (29.99, 492.19)
12.000                   3.0000                   2.0000                   6000.0                   1000.0                   0.0000                   20.000                   20.000                   20.000                   20.000                   20.001                   20.065                   20.000                   20.000                   20.000                   20.000                   20.001                   20.066                   20.000                   20.000                   20.000                   20.000                   20.001                   20.066                   20.000                   20.000                   20.000                   20.000                   20.001                   20.065                   20.000                   20.000                   20.000                   20.000                   20.001                   20.065                   20.000                   20.000                   20.000                   20.000                   20.001                   20.066                   20.000                   20.000                   20.000                   20.000                   20.001                   20.066                   20.000                   20.000                   20.000                   20.000                   20.001                   20.064                   20.000                   20.000                   20.000                   20.000                   20.001                   20.061                   20.000                   20.000                   20.000                   20.000                   20.000                   20.044
12.000                   3.0000                   2.0000                   6000.0                   1000.0                   5.0000                   21.124                   23.579                   35.637                   37.878                   39.335                   40.114                   21.147                   23.662                   35.998                   38.268                   39.747                   40.537                   21.162                   23.716                   36.244                   38.549                   40.046                   40.839                   21.131                   23.603                   35.735                   37.981                   39.443                   40.223                   21.130                   23.599                   35.711                   37.949                   39.402                   40.180                   21.161                   23.713                   36.233                   38.535                   40.031                   40.823                   21.150                   23.674                   36.078                   38.367                   39.856                   40.647                   21.109                   23.540                   35.449                   37.636                   39.059                   39.819                   21.040                   23.296                   34.427                   36.481                   37.816                   38.536                   21.480                   23.683                   31.868                   33.247                   34.130                   34.616
12.000                   3.0000                   2.0000                   6000.0                   1000.0                   10.000                   25.851                   30.875                   46.575                   48.972                   50.488                   51.281                   25.932                   31.045                   47.038                   49.483                   51.031                   51.839                   25.983                   31.151                   47.319                   49.792                   51.357                   52.176                   25.880                   30.934                   46.741                   49.156                   50.684                   51.484                   25.875                   30.924                   46.713                   49.126                   50.651                   51.448                   25.980                   31.144                   47.298                   49.769                   51.332                   52.149                   25.940                   31.062                   47.078                   49.525                   51.073                   51.882                   25.723                   30.655                   46.051                   48.400                   49.885                   50.664                   25.278                   29.788                   43.978                   46.157                   47.538                   48.268                   25.310                   29.083                   39.269                   40.727                   41.636                   42.131
12.000                   3.0000                   2.0000                   6000.0                   1000.0                   15.000                   32.750                   39.168                   56.546                   59.013                   60.557                   61.356                   32.880                   39.394                   57.054                   59.568                   61.143                   61.958                   32.959                   39.531                   57.360                   59.901                   61.493                   62.317                   32.796                   39.247                   56.729                   59.214                   60.770                   61.576                   32.787                   39.232                   56.692                   59.173                   60.726                   61.528                   32.953                   39.520                   57.332                   59.869                   61.459                   62.283                   32.883                   39.403                   57.074                   59.588                   61.162                   61.977                   32.374                   38.647                   55.630                   58.044                   59.556                   60.342                   31.319                   37.012                   52.568                   54.799                   56.199                   56.933                   30.769                   35.474                   46.665                   48.186                   49.130                   49.644
12.000                   3.0000                   2.0000                   6000.0                   1000.0                   20.000                   40.484                   47.815                   66.202                   68.714                   70.279                   71.084                   40.655                   48.083                   66.749                   69.306                   70.901                   71.719                   40.758                   48.244                   67.073                   69.656                   71.267                   72.094                   40.543                   47.907                   66.393                   68.923                   70.498                   71.308                   40.530                   47.886                   66.349                   68.873                   70.444                   71.251                   40.748                   48.227                   67.038                   69.619                   71.228                   72.054                   40.650                   48.080                   66.747                   69.305                   70.899                   71.717                   39.797                   46.938                   64.866                   67.321                   68.850                   69.640                   38.041                   44.488                   60.837                   63.099                   64.512                   65.248                   36.882                   42.238                   54.040                   55.589                   56.560                   57.095
12.000                   3.0000                   2.0000                   6000.0                   1000.0                   25.000                   48.932                   56.751                   75.677                   78.221                   79.803                   80.612                   49.134                   57.049                   76.252                   78.841                   80.452                   81.274                   49.255                   57.226                   76.590                   79.205                   80.832                   81.662                   49.001                   56.851                   75.872                   78.432                   80.024                   80.838                   48.983                   56.826                   75.823                   78.378                   79.967                   80.778                   49.239                   57.204                   76.549                   79.161                   80.786                   81.616                   49.111                   57.025                   76.226                   78.815                   80.425                   81.247                   47.853                   55.453                   73.879                   76.362                   77.906                   78.699                   45.378                   52.216                   68.975                   71.259                   72.683                   73.421                   43.852                   49.664                   61.825                   63.392                   64.369                   64.902
12.000                   3.0000                   2.0000                   6000.0                   1000.0                   30.000                   57.721                   65.824                   85.065                   87.635                   89.232                   90.045                   57.948                   66.146                   85.665                   88.279                   89.905                   90.730                   58.083                   66.336                   86.015                   88.655                   90.297                   91.130                   57.797                   65.930                   85.262                   87.847                   89.453                   90.270                   57.775                   65.901                   85.211                   87.792                   89.396                   90.211                   58.061                   66.308                   85.968                   88.605                   90.245                   91.077                   57.904                   66.099                   85.612                   88.226                   89.851                   90.676                   56.212                   64.073                   82.785                   85.290                   86.847                   87.643                   53.009                   60.064                   77.051                   79.353                   80.787                   81.528                   51.230                   57.405                   69.805                   71.386                   72.359                   72.879
12.000                   3.0000                   2.0000                   6000.0                   1000.0                   35.000                   66.867                   75.105                   94.574                   97.174                   98.790                   99.608                   67.108                   75.441                   95.191                   97.836                   99.480                   100.31                   67.251                   75.639                   95.550                   98.220                   99.881                   100.72                   66.945                   75.214                   94.774                   97.388                   99.013                   99.835                   66.920                   75.182                   94.721                   97.331                   98.954                   99.775                   67.223                   75.604                   95.496                   98.163                   99.822                   100.66                   67.025                   75.353                   95.094                   97.738                   99.382                   100.21                   64.832                   72.815                   91.725                   94.255                   95.829                   96.628                   60.955                   68.103                   85.229                   87.549                   88.995                   89.739                   58.944                   65.236                   77.694                   79.277                   80.251                   80.763
12.000                   3.0000                   2.0000                   6000.0                   1000.0                   40.000                   76.127                   84.453                   104.12                   106.75                   108.39                   109.21                   76.379                   84.800                   104.75                   107.43                   109.10                   109.93                   76.528                   85.004                   105.12                   107.82                   109.50                   110.35                   76.207                   84.563                   104.32                   106.97                   108.61                   109.44                   76.180                   84.529                   104.27                   106.91                   108.55                   109.38                   76.494                   84.962                   105.06                   107.76                   109.44                   110.28                   76.251                   84.665                   104.61                   107.28                   108.95                   109.78                   73.537                   81.596                   100.68                   103.23                   104.82                   105.63                   69.003                   76.204                   93.440                   95.778                   97.235                   97.982                   66.767                   73.097                   85.554                   87.136                   88.112                   88.616
12.000                   3.0000                   2.0000                   6000.0                   1000.0                   45.000                   85.387                   93.801                   113.67                   116.33                   117.99                   118.82                   85.651                   94.160                   114.32                   117.02                   118.71                   119.55                   85.806                   94.369                   114.69                   117.42                   119.13                   119.98                   85.469                   93.913                   113.87                   116.55                   118.22                   119.05                   85.440                   93.876                   113.82                   116.49                   118.16                   118.99                   85.765                   94.320                   114.62                   117.35                   119.05                   119.90                   85.477                   93.977                   114.12                   116.83                   118.51                   119.35                   82.243                   90.377                   109.63                   112.21                   113.82                   114.63                   77.051                   84.304                   101.65                   104.01                   105.48                   106.23                   74.590                   80.959                   93.413                   94.994                   95.974                   96.470
12.000                   3.0000                   2.0000                   6000.0                   1000.0                   50.000                   94.648                   103.15                   123.22                   125.91                   127.59                   128.42                   94.923                   103.52                   123.88                   126.62                   128.32                   129.17                   95.083                   103.73                   124.26                   127.03                   128.75                   129.60                   94.732                   103.26                   123.43                   126.13                   127.82                   128.66                   94.700                   103.22                   123.37                   126.07                   127.76                   128.59                   95.036                   103.68                   124.18                   126.95                   128.67                   129.52                   94.703                   103.29                   123.63                   126.37                   128.08                   128.92                   90.948                   99.159                   118.58                   121.19                   122.81                   123.62                   85.099                   92.405                   109.86                   112.24                   113.72                   114.47                   82.414                   88.820                   101.27                   102.85                   103.83                   104.32
12.000                   3.0000                   2.0000                   6000.0                   1000.0                   55.000                   104.10                   112.69                   133.00                   135.73                   137.43                   138.27                   104.38                   113.06                   133.67                   136.45                   138.18                   139.03                   104.54                   113.28                   134.06                   136.86                   138.61                   139.47                   104.18                   112.80                   133.21                   135.95                   137.66                   138.51                   104.15                   112.76                   133.15                   135.89                   137.60                   138.44                   104.49                   113.22                   133.97                   136.77                   138.52                   139.38                   104.08                   112.76                   133.34                   136.12                   137.85                   138.70                   99.756                   108.04                   127.66                   130.30                   131.95                   132.77                   93.346                   100.69                   118.28                   120.68                   122.17                   122.93                   90.507                   96.942                   109.40                   110.99                   111.97                   112.46
12.000                   3.0000                   2.0000                   6000.0                   1000.0                   60.000                   113.57                   122.24                   142.81                   145.57                   147.30                   148.14                   113.86                   122.62                   143.49                   146.30                   148.05                   148.92                   114.02                   122.84                   143.88                   146.72                   148.49                   149.36                   113.66                   122.36                   143.01                   145.80                   147.53                   148.38                   113.62                   122.31                   142.95                   145.73                   147.46                   148.32                   113.96                   122.77                   143.78                   146.62                   148.39                   149.26                   113.48                   122.24                   143.07                   145.89                   147.64                   148.50                   108.57                   116.92                   136.76                   139.43                   141.10                   141.93                   101.61                   108.99                   126.72                   129.14                   130.64                   131.40                   98.626                   105.09                   117.56                   119.14                   120.13                   120.62
12.000                   3.0000                   2.0000                   6000.0                   1000.0                   65.000                   123.04                   131.80                   152.61                   155.41                   157.16                   158.02                   123.33                   132.19                   153.30                   156.15                   157.93                   158.80                   123.50                   132.41                   153.69                   156.57                   158.37                   159.25                   123.13                   131.91                   152.82                   155.64                   157.40                   158.26                   123.09                   131.87                   152.76                   155.57                   157.33                   158.19                   123.43                   132.33                   153.59                   156.47                   158.26                   159.13                   122.88                   131.72                   152.80                   155.65                   157.43                   158.30                   117.39                   125.81                   145.86                   148.56                   150.25                   151.08                   109.88                   117.30                   135.16                   137.60                   139.12                   139.88                   106.74                   113.23                   125.72                   127.30                   128.29                   128.78
12.000                   3.0000                   2.0000                   6000.0                   1000.0                   70.000                   132.51                   141.35                   162.41                   165.26                   167.02                   167.89                   132.81                   141.75                   163.11                   166.00                   167.80                   168.68                   132.98                   141.97                   163.51                   166.43                   168.25                   169.13                   132.60                   141.47                   162.63                   165.48                   167.26                   168.13                   132.56                   141.42                   162.56                   165.41                   167.19                   168.06                   132.89                   141.88                   163.40                   166.31                   168.13                   169.01                   132.27                   141.20                   162.53                   165.42                   167.22                   168.09                   126.21                   134.70                   154.96                   157.70                   159.40                   160.24                   118.14                   125.60                   143.60                   146.06                   147.59                   148.36                   114.86                   121.38                   133.88                   135.46                   136.45                   136.94
12.000                   3.0000                   2.0000                   6000.0                   1000.0                   75.000                   141.98                   150.91                   172.22                   175.10                   176.89                   177.76                   142.29                   151.31                   172.93                   175.85                   177.68                   178.56                   142.46                   151.54                   173.33                   176.29                   178.13                   179.02                   142.07                   151.02                   172.43                   175.33                   177.13                   178.00                   142.03                   150.97                   172.36                   175.25                   177.06                   177.93                   142.36                   151.43                   173.20                   176.16                   178.00                   178.89                   141.67                   150.68                   172.26                   175.19                   177.01                   177.89                   135.03                   143.58                   164.06                   166.83                   168.55                   169.40                   126.41                   133.90                   152.03                   154.52                   156.07                   156.84                   122.98                   129.53                   142.03                   143.62                   144.62                   145.10