% Model:              batchmodel_COIL_N_12_COIL_kr_1.5_COIL_kh_1.5_FUNZ_freq_6000_FUNZ_I_eff_2500.mph
% Version:            COMSOL 6.0.0.318
% Date:               Feb 8 2022, 18:30
% Table:              Tabella 1 - GRIGLIA_T
% COIL_N                 COIL_kr                  COIL_kh                  FUNZ_freq                FUNZ_I_eff               Time (s)                 Temperatura (degC), Point: (0, 0)Temperatura (degC), Point: (15, 0)Temperatura (degC), Point: (27.483, 0)Temperatura (degC), Point: (28.742, 0)Temperatura (degC), Point: (29.497, 0)Temperatura (degC), Point: (29.99, 0)Temperatura (degC), Point: (0, 62.5)Temperatura (degC), Point: (15, 62.5)Temperatura (degC), Point: (27.483, 62.5)Temperatura (degC), Point: (28.742, 62.5)Temperatura (degC), Point: (29.497, 62.5)Temperatura (degC), Point: (29.99, 62.5)Temperatura (degC), Point: (0, 125)Temperatura (degC), Point: (15, 125)Temperatura (degC), Point: (27.483, 125)Temperatura (degC), Point: (28.742, 125)Temperatura (degC), Point: (29.497, 125)Temperatura (degC), Point: (29.99, 125)Temperatura (degC), Point: (0, 187.5)Temperatura (degC), Point: (15, 187.5)Temperatura (degC), Point: (27.483, 187.5)Temperatura (degC), Point: (28.742, 187.5)Temperatura (degC), Point: (29.497, 187.5)Temperatura (degC), Point: (29.99, 187.5)Temperatura (degC), Point: (0, 250)Temperatura (degC), Point: (15, 250)Temperatura (degC), Point: (27.483, 250)Temperatura (degC), Point: (28.742, 250)Temperatura (degC), Point: (29.497, 250)Temperatura (degC), Point: (29.99, 250)Temperatura (degC), Point: (0, 312.5)Temperatura (degC), Point: (15, 312.5)Temperatura (degC), Point: (27.483, 312.5)Temperatura (degC), Point: (28.742, 312.5)Temperatura (degC), Point: (29.497, 312.5)Temperatura (degC), Point: (29.99, 312.5)Temperatura (degC), Point: (0, 375)Temperatura (degC), Point: (15, 375)Temperatura (degC), Point: (27.483, 375)Temperatura (degC), Point: (28.742, 375)Temperatura (degC), Point: (29.497, 375)Temperatura (degC), Point: (29.99, 375)Temperatura (degC), Point: (0, 437.5)Temperatura (degC), Point: (15, 437.5)Temperatura (degC), Point: (27.483, 437.5)Temperatura (degC), Point: (28.742, 437.5)Temperatura (degC), Point: (29.497, 437.5)Temperatura (degC), Point: (29.99, 437.5)Temperatura (degC), Point: (0, 468.75)Temperatura (degC), Point: (15, 468.75)Temperatura (degC), Point: (27.483, 468.75)Temperatura (degC), Point: (28.742, 468.75)Temperatura (degC), Point: (29.497, 468.75)Temperatura (degC), Point: (29.99, 468.75)Temperatura (degC), Point: (0, 492.19)Temperatura (degC), Point: (15, 492.19)Temperatura (degC), Point: (27.483, 492.19)Temperatura (degC), Point: (28.742, 492.19)Temperatura (degC), Point: (29.497, 492.19)Temperatura (degC), Point: (29.99, 492.19)
12.000                   1.5000                   1.5000                   6000.0                   2500.0                   0.0000                   20.000                   20.000                   20.000                   20.000                   20.008                   20.136                   20.000                   20.000                   20.000                   20.000                   20.026                   20.224                   20.000                   20.000                   20.000                   20.000                   20.044                   20.280                   20.000                   20.000                   20.000                   20.000                   20.010                   20.152                   20.000                   20.000                   20.000                   20.000                   20.013                   20.163                   20.000                   20.000                   20.000                   20.000                   20.047                   20.288                   20.000                   20.000                   20.000                   20.000                   20.021                   20.202                   20.000                   20.000                   20.000                   20.000                   20.008                   20.136                   20.000                   20.000                   20.000                   20.000                   20.030                   20.237                   20.000                   20.000                   20.000                   20.000                   20.040                   20.268
12.000                   1.5000                   1.5000                   6000.0                   2500.0                   5.0000                   22.446                   30.817                   72.464                   79.680                   84.216                   86.291                   23.761                   37.504                   109.84                   122.84                   131.04                   134.41                   24.470                   41.393                   133.76                   150.74                   161.47                   165.70                   22.778                   32.489                   81.099                   89.398                   94.576                   96.895                   22.969                   33.471                   86.857                   95.982                   101.64                   104.12                   24.645                   42.255                   138.46                   156.10                   167.20                   171.50                   23.476                   35.978                   100.51                   111.92                   119.16                   122.22                   22.522                   31.331                   75.673                   83.101                   87.670                   89.749                   23.932                   38.361                   114.83                   128.56                   137.25                   140.79                   27.161                   45.269                   131.81                   147.13                   156.81                   160.64
12.000                   1.5000                   1.5000                   6000.0                   2500.0                   10.000                   39.268                   60.415                   123.14                   132.37                   137.34                   139.51                   47.401                   79.861                   184.10                   200.93                   210.85                   214.71                   51.383                   89.854                   218.97                   240.54                   253.50                   257.91                   41.297                   65.049                   136.48                   147.15                   153.10                   155.46                   42.624                   68.428                   148.59                   161.00                   167.78                   170.54                   52.304                   91.928                   223.41                   244.83                   257.63                   262.29                   45.638                   75.577                   170.28                   185.37                   194.69                   198.34                   39.842                   61.739                   127.99                   138.43                   144.62                   146.96                   48.557                   82.216                   189.03                   205.01                   214.01                   217.96                   60.129                   99.906                   216.27                   233.33                   243.18                   247.20
12.000                   1.5000                   1.5000                   6000.0                   2500.0                   15.000                   70.894                   98.536                   167.33                   176.69                   182.50                   184.95                   87.201                   127.56                   237.42                   253.60                   263.64                   267.38                   94.770                   141.76                   276.01                   296.71                   309.49                   314.02                   74.680                   105.00                   181.82                   192.41                   198.97                   201.66                   77.621                   110.27                   193.71                   205.22                   212.35                   215.21                   96.541                   144.76                   282.94                   304.34                   317.54                   322.17                   83.790                   121.45                   222.11                   236.63                   245.63                   249.06                   71.843                   99.895                   169.23                   178.61                   184.42                   186.86                   89.778                   131.31                   245.81                   262.95                   273.60                   277.51                   107.08                   154.73                   279.86                   298.21                   309.57                   313.66
12.000                   1.5000                   1.5000                   6000.0                   2500.0                   20.000                   108.29                   139.58                   214.91                   225.19                   231.60                   234.20                   130.80                   175.33                   293.02                   310.56                   321.45                   325.36                   141.17                   192.67                   335.45                   357.68                   371.34                   376.01                   113.34                   147.39                   231.07                   242.71                   249.95                   252.81                   117.44                   153.71                   243.29                   255.79                   263.58                   266.59                   143.55                   196.26                   343.36                   366.40                   380.51                   385.29                   126.21                   167.99                   276.12                   291.87                   301.63                   305.22                   109.32                   140.75                   216.00                   226.26                   232.65                   235.24                   134.61                   180.24                   302.79                   321.37                   332.87                   336.91                   156.26                   208.00                   341.03                   360.61                   372.65                   376.81
12.000                   1.5000                   1.5000                   6000.0                   2500.0                   25.000                   148.66                   182.69                   265.09                   276.49                   283.57                   286.33                   175.68                   223.09                   349.28                   368.33                   380.09                   384.15                   188.25                   242.92                   395.78                   419.84                   434.41                   439.21                   154.64                   191.52                   282.79                   295.67                   303.65                   306.68                   159.46                   198.38                   295.35                   309.15                   317.74                   320.89                   191.01                   246.83                   403.91                   428.72                   443.80                   448.74                   170.30                   214.99                   331.56                   348.80                   359.43                   363.17                   149.59                   183.59                   265.84                   277.27                   284.36                   287.11                   180.49                   228.89                   360.04                   380.21                   392.61                   396.78                   205.79                   260.26                   401.08                   421.99                   434.72                   438.94
12.000                   1.5000                   1.5000                   6000.0                   2500.0                   30.000                   191.23                   227.76                   317.93                   330.61                   338.46                   341.38                   220.71                   270.68                   405.70                   426.25                   438.78                   442.94                   234.78                   292.30                   455.49                   481.40                   496.88                   501.78                   197.66                   237.07                   336.29                   350.46                   359.21                   362.38                   202.85                   244.24                   349.36                   364.52                   373.90                   377.18                   237.66                   296.27                   463.55                   490.18                   506.21                   511.27                   215.01                   262.35                   387.98                   406.78                   418.27                   422.13                   191.93                   228.35                   318.39                   331.12                   338.99                   341.91                   226.12                   277.02                   417.13                   438.90                   452.16                   456.42                   253.86                   310.60                   458.86                   481.07                   494.45                   498.72
12.000                   1.5000                   1.5000                   6000.0                   2500.0                   35.000                   233.90                   272.93                   370.91                   384.87                   393.49                   396.56                   265.75                   318.27                   462.13                   484.18                   497.47                   501.73                   281.28                   341.63                   515.16                   542.93                   559.31                   564.32                   240.76                   282.68                   389.86                   405.34                   414.85                   418.18                   246.30                   290.16                   403.46                   419.98                   430.15                   433.56                   284.27                   345.66                   523.14                   551.61                   568.59                   573.75                   259.74                   309.71                   444.45                   464.81                   477.17                   481.14                   234.36                   273.20                   371.06                   385.10                   393.76                   396.83                   271.75                   325.13                   474.21                   497.58                   511.70                   516.06                   301.87                   360.85                   516.53                   540.04                   554.08                   558.39
12.000                   1.5000                   1.5000                   6000.0                   2500.0                   40.000                   277.14                   318.68                   424.81                   440.13                   449.54                   452.74                   309.94                   364.98                   517.96                   541.67                   555.77                   560.11                   326.43                   389.50                   573.14                   603.02                   620.43                   625.54                   284.06                   328.43                   443.66                   460.50                   470.76                   474.20                   289.78                   336.14                   457.91                   475.89                   486.84                   490.37                   329.34                   393.36                   580.69                   611.27                   629.32                   634.59                   303.94                   356.56                   500.73                   522.83                   536.12                   540.19                   277.32                   318.64                   424.53                   439.89                   449.32                   452.53                   316.18                   372.02                   530.16                   555.23                   570.24                   574.68                   347.47                   408.36                   570.71                   595.57                   610.33                   614.67
12.000                   1.5000                   1.5000                   6000.0                   2500.0                   45.000                   320.42                   364.48                   478.78                   495.46                   505.65                   508.97                   354.07                   411.64                   573.76                   599.14                   614.04                   618.46                   371.50                   437.28                   631.02                   663.01                   681.47                   686.67                   327.38                   374.20                   497.48                   515.67                   526.69                   530.24                   333.26                   382.13                   512.39                   531.82                   543.56                   547.19                   374.32                   440.95                   638.11                   670.82                   689.95                   695.32                   348.12                   403.38                   557.00                   580.85                   595.08                   599.25                   320.32                   364.11                   478.05                   494.73                   504.94                   508.27                   360.54                   418.83                   586.05                   612.82                   628.73                   633.25                   392.93                   455.70                   624.66                   650.89                   666.38                   670.75
12.000                   1.5000                   1.5000                   6000.0                   2500.0                   50.000                   362.58                   409.24                   532.79                   551.13                   562.26                   565.71                   395.76                   455.58                   626.09                   653.62                   669.69                   674.23                   413.28                   480.97                   681.37                   716.29                   736.54                   741.96                   369.26                   418.53                   550.59                   570.48                   582.45                   586.12                   375.17                   426.60                   566.12                   587.42                   600.19                   603.95                   415.91                   484.40                   688.55                   724.65                   745.77                   751.37                   390.00                   447.60                   609.74                   635.65                   651.04                   655.33                   362.26                   408.65                   531.68                   549.97                   561.09                   564.54                   402.04                   462.44                   637.40                   666.26                   683.34                   688.00                   433.98                   497.96                   670.08                   697.56                   713.92                   718.35
12.000                   1.5000                   1.5000                   6000.0                   2500.0                   55.000                   404.66                   453.93                   586.81                   606.82                   618.90                   622.48                   437.25                   499.31                   678.16                   707.87                   725.13                   729.79                   454.80                   524.36                   731.15                   769.05                   791.15                   796.79                   411.02                   462.75                   603.65                   625.25                   638.20                   641.98                   416.97                   470.94                   619.79                   642.99                   656.81                   660.70                   457.24                   527.54                   738.45                   778.04                   801.22                   807.06                   431.72                   491.62                   662.21                   690.20                   706.77                   711.18                   404.13                   453.12                   585.32                   605.23                   617.28                   620.85                   443.32                   505.80                   688.40                   719.37                   737.66                   742.45                   474.70                   539.84                   714.84                   743.58                   760.80                   765.31
12.000                   1.5000                   1.5000                   6000.0                   2500.0                   60.000                   443.99                   495.12                   633.60                   654.87                   667.60                   671.24                   475.95                   539.28                   724.93                   757.94                   776.64                   781.43                   493.42                   564.09                   786.91                   829.09                   852.40                   857.98                   450.11                   503.55                   649.44                   672.27                   685.96                   689.80                   456.00                   511.55                   664.52                   688.88                   703.42                   707.39                   495.73                   567.19                   795.79                   839.62                   863.82                   869.53                   470.54                   531.69                   706.60                   736.87                   754.57                   759.10                   443.33                   494.21                   632.03                   653.18                   665.87                   669.49                   481.57                   545.12                   735.10                   769.47                   789.07                   793.99                   511.85                   577.00                   758.14                   789.66                   807.81                   812.35
12.000                   1.5000                   1.5000                   6000.0                   2500.0                   65.000                   482.45                   535.22                   678.12                   700.50                   713.80                   717.46                   513.77                   578.05                   770.02                   806.69                   826.92                   831.84                   531.12                   602.68                   844.56                   891.43                   915.75                   921.16                   488.35                   543.27                   692.93                   716.84                   731.19                   735.08                   494.17                   550.98                   706.42                   731.72                   746.88                   750.90                   533.33                   605.74                   855.48                   903.79                   928.66                   934.15                   508.46                   570.50                   748.44                   781.06                   799.88                   804.52                   481.68                   534.24                   676.57                   698.83                   712.06                   715.71                   518.87                   583.16                   780.43                   818.63                   839.55                   844.60                   547.88                   612.68                   800.98                   835.77                   854.87                   859.40
12.000                   1.5000                   1.5000                   6000.0                   2500.0                   70.000                   517.75                   570.24                   710.31                   732.45                   745.55                   749.07                   548.65                   612.43                   804.94                   840.98                   860.52                   865.12                   566.17                   638.49                   896.30                   941.08                   962.88                   967.35                   523.50                   578.06                   725.03                   748.85                   763.04                   766.78                   529.22                   585.50                   738.30                   763.63                   778.60                   782.46                   568.39                   642.11                   922.80                   969.40                   990.53                   994.52                   543.31                   604.66                   781.60                   813.85                   832.07                   836.45                   516.96                   569.32                   709.07                   731.14                   744.21                   747.72                   553.03                   616.89                   819.35                   858.01                   878.65                   883.45                   580.51                   644.12                   837.39                   872.16                   890.71                   894.94
12.000                   1.5000                   1.5000                   6000.0                   2500.0                   75.000                   550.87                   601.76                   733.99                   754.93                   767.31                   770.57                   581.50                   643.77                   832.82                   865.27                   882.59                   886.56                   599.37                   672.36                   943.95                   981.95                   998.80                   1001.8                   556.53                   609.43                   749.26                   772.19                   785.64                   789.10                   562.12                   616.63                   763.27                   787.99                   802.20                   805.77                   601.70                   676.96                   995.40                   1036.0                   1050.3                   1052.0                   576.05                   635.62                   808.75                   838.75                   855.20                   859.07                   550.11                   600.97                   733.27                   754.23                   766.64                   769.91                   585.01                   647.62                   853.83                   890.63                   909.88                   914.19                   610.80                   672.65                   869.36                   901.84                   918.80                   922.50