% Model:              batchmodel_COIL_N_12_COIL_kr_1.5_COIL_kh_1.5_FUNZ_freq_10000_FUNZ_I_eff_1000.mph
% Version:            COMSOL 6.0.0.318
% Date:               Feb 8 2022, 18:20
% Table:              Tabella 1 - GRIGLIA_T
% COIL_N                 COIL_kr                  COIL_kh                  FUNZ_freq                FUNZ_I_eff               Time (s)                 Temperatura (degC), Point: (0, 0)Temperatura (degC), Point: (15, 0)Temperatura (degC), Point: (28.051, 0)Temperatura (degC), Point: (29.025, 0)Temperatura (degC), Point: (29.61, 0)Temperatura (degC), Point: (29.99, 0)Temperatura (degC), Point: (0, 62.5)Temperatura (degC), Point: (15, 62.5)Temperatura (degC), Point: (28.051, 62.5)Temperatura (degC), Point: (29.025, 62.5)Temperatura (degC), Point: (29.61, 62.5)Temperatura (degC), Point: (29.99, 62.5)Temperatura (degC), Point: (0, 125)Temperatura (degC), Point: (15, 125)Temperatura (degC), Point: (28.051, 125)Temperatura (degC), Point: (29.025, 125)Temperatura (degC), Point: (29.61, 125)Temperatura (degC), Point: (29.99, 125)Temperatura (degC), Point: (0, 187.5)Temperatura (degC), Point: (15, 187.5)Temperatura (degC), Point: (28.051, 187.5)Temperatura (degC), Point: (29.025, 187.5)Temperatura (degC), Point: (29.61, 187.5)Temperatura (degC), Point: (29.99, 187.5)Temperatura (degC), Point: (0, 250)Temperatura (degC), Point: (15, 250)Temperatura (degC), Point: (28.051, 250)Temperatura (degC), Point: (29.025, 250)Temperatura (degC), Point: (29.61, 250)Temperatura (degC), Point: (29.99, 250)Temperatura (degC), Point: (0, 312.5)Temperatura (degC), Point: (15, 312.5)Temperatura (degC), Point: (28.051, 312.5)Temperatura (degC), Point: (29.025, 312.5)Temperatura (degC), Point: (29.61, 312.5)Temperatura (degC), Point: (29.99, 312.5)Temperatura (degC), Point: (0, 375)Temperatura (degC), Point: (15, 375)Temperatura (degC), Point: (28.051, 375)Temperatura (degC), Point: (29.025, 375)Temperatura (degC), Point: (29.61, 375)Temperatura (degC), Point: (29.99, 375)Temperatura (degC), Point: (0, 437.5)Temperatura (degC), Point: (15, 437.5)Temperatura (degC), Point: (28.051, 437.5)Temperatura (degC), Point: (29.025, 437.5)Temperatura (degC), Point: (29.61, 437.5)Temperatura (degC), Point: (29.99, 437.5)Temperatura (degC), Point: (0, 468.75)Temperatura (degC), Point: (15, 468.75)Temperatura (degC), Point: (28.051, 468.75)Temperatura (degC), Point: (29.025, 468.75)Temperatura (degC), Point: (29.61, 468.75)Temperatura (degC), Point: (29.99, 468.75)Temperatura (degC), Point: (0, 492.19)Temperatura (degC), Point: (15, 492.19)Temperatura (degC), Point: (28.051, 492.19)Temperatura (degC), Point: (29.025, 492.19)Temperatura (degC), Point: (29.61, 492.19)Temperatura (degC), Point: (29.99, 492.19)
12.000                   1.5000                   1.5000                   10000                    1000.0                   0.0000                   20.000                   20.000                   20.000                   20.000                   20.002                   20.069                   20.000                   20.000                   20.000                   20.000                   20.004                   20.112                   20.000                   20.000                   20.000                   20.000                   20.007                   20.139                   20.000                   20.000                   20.000                   20.000                   20.002                   20.077                   20.000                   20.000                   20.000                   20.000                   20.002                   20.082                   20.000                   20.000                   20.000                   20.000                   20.007                   20.142                   20.000                   20.000                   20.000                   20.000                   20.003                   20.101                   20.000                   20.000                   20.000                   20.000                   20.002                   20.068                   20.000                   20.000                   20.000                   20.000                   20.005                   20.118                   20.000                   20.000                   20.000                   20.000                   20.006                   20.129
12.000                   1.5000                   1.5000                   10000                    1000.0                   5.0000                   20.999                   23.315                   35.569                   37.169                   38.182                   38.734                   21.451                   25.149                   45.885                   48.697                   50.495                   51.423                   21.701                   26.209                   52.466                   56.121                   58.461                   59.631                   21.095                   23.701                   37.577                   39.397                   40.553                   41.177                   21.164                   23.974                   39.024                   41.004                   42.263                   42.936                   21.735                   26.360                   53.499                   57.342                   59.830                   61.089                   21.355                   24.754                   43.509                   46.021                   47.622                   48.458                   20.994                   23.314                   35.565                   37.169                   38.187                   38.741                   21.502                   25.368                   47.289                   50.284                   52.201                   53.184                   21.927                   26.563                   51.039                   54.315                   56.418                   57.488
12.000                   1.5000                   1.5000                   10000                    1000.0                   10.000                   25.404                   30.770                   47.378                   49.089                   50.143                   50.704                   27.461                   35.705                   62.920                   65.870                   67.702                   68.629                   28.570                   38.483                   72.600                   76.408                   78.758                   79.896                   25.858                   31.835                   50.520                   52.455                   53.648                   54.277                   26.169                   32.567                   52.719                   54.818                   56.112                   56.790                   28.718                   38.876                   74.299                   78.422                   81.046                   82.332                   27.032                   34.653                   59.403                   62.043                   63.678                   64.515                   25.396                   30.769                   47.398                   49.111                   50.166                   50.727                   27.698                   36.258                   64.871                   68.008                   69.962                   70.944                   29.478                   39.640                   71.548                   74.922                   77.025                   78.078
12.000                   1.5000                   1.5000                   10000                    1000.0                   15.000                   33.104                   40.324                   58.831                   60.603                   61.685                   62.254                   37.229                   48.042                   77.784                   80.807                   82.670                   83.601                   39.410                   52.289                   89.335                   93.223                   95.587                   96.713                   34.029                   42.014                   62.728                   64.724                   65.943                   66.578                   34.647                   43.155                   65.417                   67.577                   68.897                   69.580                   39.681                   52.850                   91.310                   95.578                   98.285                   99.553                   36.359                   46.382                   73.469                   76.175                   77.836                   78.678                   33.086                   40.308                   58.822                   60.591                   61.671                   62.238                   37.744                   48.920                   80.080                   83.293                   85.278                   86.264                   41.442                   54.651                   89.216                   92.624                   94.729                   95.773
12.000                   1.5000                   1.5000                   10000                    1000.0                   20.000                   42.839                   51.033                   70.491                   72.307                   73.415                   73.994                   48.956                   61.009                   91.929                   95.016                   96.917                   97.861                   52.140                   66.395                   104.71                   108.67                   111.07                   112.20                   44.223                   53.240                   74.948                   76.989                   78.235                   78.880                   45.132                   54.707                   77.978                   80.184                   81.532                   82.224                   52.512                   67.068                   106.89                   111.29                   114.09                   115.35                   47.635                   58.819                   86.973                   89.731                   91.424                   92.275                   42.789                   50.971                   70.397                   72.205                   73.307                   73.883                   49.801                   62.212                   94.501                   97.774                   99.796                   100.79                   55.521                   70.115                   105.73                   109.17                   111.29                   112.34
12.000                   1.5000                   1.5000                   10000                    1000.0                   25.000                   54.617                   63.122                   83.084                   84.945                   86.082                   86.673                   62.092                   74.486                   106.06                   109.23                   111.18                   112.14                   65.982                   80.604                   119.75                   123.84                   126.34                   127.52                   56.330                   65.670                   87.908                   90.000                   91.279                   91.936                   57.439                   67.342                   91.165                   93.427                   94.809                   95.515                   66.415                   81.344                   121.94                   126.40                   129.23                   130.51                   60.478                   72.006                   100.80                   103.64                   105.38                   106.24                   54.544                   63.033                   82.951                   84.805                   85.936                   86.524                   63.351                   76.091                   109.05                   112.41                   114.48                   115.50                   70.666                   85.531                   121.83                   125.37                   127.57                   128.63
12.000                   1.5000                   1.5000                   10000                    1000.0                   30.000                   66.772                   75.470                   95.856                   97.764                   98.930                   99.534                   75.483                   88.055                   120.20                   123.45                   125.46                   126.44                   80.021                   94.830                   134.75                   138.97                   141.58                   142.81                   68.790                   78.324                   101.01                   103.16                   104.47                   105.14                   70.080                   80.178                   104.48                   106.80                   108.22                   108.94                   80.506                   95.628                   136.91                   141.41                   144.25                   145.58                   73.606                   85.331                   114.71                   117.61                   119.41                   120.29                   66.678                   75.355                   95.695                   97.597                   98.758                   99.359                   77.171                   90.078                   123.63                   127.08                   129.21                   130.25                   85.997                   100.93                   137.86                   141.52                   143.79                   144.89
12.000                   1.5000                   1.5000                   10000                    1000.0                   35.000                   79.240                   88.115                   108.94                   110.90                   112.10                   112.71                   88.940                   101.70                   134.48                   137.81                   139.87                   140.86                   94.009                   109.02                   149.68                   154.01                   156.70                   157.97                   81.511                   91.229                   114.40                   116.60                   117.95                   118.63                   82.946                   93.233                   118.05                   120.42                   121.88                   122.62                   94.544                   109.88                   151.84                   156.38                   159.24                   160.59                   86.878                   98.809                   128.81                   131.80                   133.64                   134.54                   79.152                   88.006                   108.79                   110.74                   111.93                   112.55                   91.070                   104.16                   138.37                   141.91                   144.10                   145.15                   101.18                   116.24                   153.78                   157.54                   159.87                   160.98
12.000                   1.5000                   1.5000                   10000                    1000.0                   40.000                   91.903                   100.94                   122.23                   124.23                   125.46                   126.09                   102.44                   115.39                   148.83                   152.24                   154.35                   155.37                   107.96                   123.20                   164.57                   168.99                   171.76                   173.05                   94.394                   104.29                   127.97                   130.22                   131.60                   132.30                   95.952                   106.42                   131.78                   134.22                   135.71                   136.46                   108.55                   124.12                   166.75                   171.34                   174.20                   175.56                   100.24                   112.38                   143.05                   146.11                   148.00                   148.92                   91.839                   100.86                   122.11                   124.11                   125.33                   125.96                   105.02                   118.31                   153.21                   156.83                   159.08                   160.15                   116.27                   131.48                   169.62                   173.46                   175.85                   176.98
12.000                   1.5000                   1.5000                   10000                    1000.0                   45.000                   104.79                   114.01                   135.76                   137.81                   139.07                   139.71                   115.99                   129.15                   163.24                   166.73                   168.89                   169.92                   121.84                   137.27                   179.24                   183.73                   186.54                   187.86                   107.45                   117.54                   141.73                   144.03                   145.45                   146.16                   109.11                   119.77                   145.67                   148.17                   149.70                   150.46                   122.47                   138.26                   181.43                   186.04                   188.91                   190.26                   113.67                   126.03                   157.34                   160.47                   162.41                   163.34                   104.75                   113.95                   135.66                   137.71                   138.97                   139.61                   118.99                   132.48                   168.06                   171.76                   174.05                   175.14                   131.14                   146.50                   185.14                   189.05                   191.48                   192.63
12.000                   1.5000                   1.5000                   10000                    1000.0                   50.000                   118.02                   127.42                   149.66                   151.76                   153.05                   153.70                   129.63                   143.01                   177.74                   181.29                   183.49                   184.54                   135.60                   151.21                   193.58                   198.09                   200.92                   202.22                   120.79                   131.06                   155.78                   158.14                   159.59                   160.31                   122.50                   133.36                   159.81                   162.37                   163.93                   164.71                   136.27                   152.24                   195.75                   200.35                   203.21                   204.55                   127.21                   139.78                   171.70                   174.90                   176.88                   177.83                   118.02                   127.40                   149.59                   151.69                   152.98                   153.62                   132.99                   146.69                   182.91                   186.68                   189.02                   190.13                   145.69                   161.17                   200.16                   204.11                   206.57                   207.72
12.000                   1.5000                   1.5000                   10000                    1000.0                   55.000                   131.26                   140.84                   163.56                   165.72                   167.04                   167.70                   143.27                   156.86                   192.23                   195.85                   198.10                   199.15                   149.36                   165.14                   207.91                   212.46                   215.30                   216.59                   134.12                   144.59                   169.82                   172.24                   173.72                   174.45                   135.89                   146.95                   173.95                   176.56                   178.17                   178.95                   150.07                   166.22                   210.08                   214.67                   217.51                   218.83                   140.75                   153.53                   186.07                   189.34                   191.35                   192.31                   131.29                   140.85                   163.52                   165.67                   166.98                   167.64                   146.99                   160.90                   197.77                   201.61                   204.00                   205.11                   160.25                   175.85                   215.19                   219.18                   221.66                   222.81
12.000                   1.5000                   1.5000                   10000                    1000.0                   60.000                   144.49                   154.26                   177.47                   179.67                   181.02                   181.69                   156.91                   170.72                   206.72                   210.42                   212.70                   213.77                   163.12                   179.07                   222.25                   226.82                   229.67                   230.96                   147.45                   158.11                   183.87                   186.34                   187.86                   188.60                   149.28                   160.54                   188.09                   190.76                   192.40                   193.19                   163.88                   180.20                   224.40                   228.99                   231.81                   233.12                   154.29                   167.28                   200.43                   203.77                   205.82                   206.79                   144.55                   154.29                   177.45                   179.64                   180.99                   181.66                   160.99                   175.12                   212.62                   216.54                   218.97                   220.10                   174.80                   190.52                   230.22                   234.24                   236.75                   237.91
12.000                   1.5000                   1.5000                   10000                    1000.0                   65.000                   157.72                   167.68                   191.37                   193.63                   195.00                   195.69                   170.55                   184.58                   221.21                   224.98                   227.31                   228.39                   176.88                   193.01                   236.58                   241.18                   244.05                   245.33                   160.78                   171.63                   197.92                   200.45                   202.00                   202.75                   162.67                   174.13                   202.23                   204.96                   206.63                   207.44                   177.68                   194.18                   238.72                   243.30                   246.11                   247.40                   167.83                   181.03                   214.80                   218.20                   220.29                   221.28                   157.82                   167.74                   191.38                   193.62                   195.00                   195.67                   174.99                   189.33                   227.48                   231.47                   233.95                   235.09                   189.35                   205.20                   245.24                   249.30                   251.84                   253.00
12.000                   1.5000                   1.5000                   10000                    1000.0                   70.000                   171.31                   181.47                   205.73                   208.04                   209.45                   210.15                   184.31                   198.59                   235.94                   239.78                   242.16                   243.26                   190.66                   207.04                   251.34                   256.01                   258.91                   260.20                   174.40                   185.47                   212.35                   214.94                   216.52                   217.29                   176.31                   187.99                   216.71                   219.50                   221.21                   222.03                   191.45                   208.21                   253.48                   258.14                   260.98                   262.26                   181.46                   194.89                   229.32                   232.79                   234.94                   235.93                   171.41                   181.54                   205.71                   208.02                   209.42                   210.11                   189.00                   203.58                   242.45                   246.52                   249.04                   250.20                   203.61                   219.66                   260.14                   264.25                   266.81                   267.98
12.000                   1.5000                   1.5000                   10000                    1000.0                   75.000                   184.92                   195.29                   220.11                   222.48                   223.93                   224.63                   198.08                   212.61                   250.68                   254.60                   257.03                   258.13                   204.44                   221.08                   266.12                   270.86                   273.79                   275.09                   188.03                   199.32                   226.80                   229.44                   231.07                   231.85                   189.96                   201.87                   231.20                   234.05                   235.80                   236.64                   205.22                   222.23                   268.26                   273.00                   275.88                   277.15                   195.10                   208.76                   243.85                   247.40                   249.59                   250.60                   185.03                   195.36                   220.07                   222.43                   223.87                   224.58                   203.00                   217.83                   257.42                   261.57                   264.15                   265.32                   217.86                   234.11                   275.03                   279.19                   281.77                   282.94