% Model:              batchmodel_COIL_N_12_COIL_kr_1.5_COIL_kh_2_FUNZ_freq_6000_FUNZ_I_eff_1000.mph
% Version:            COMSOL 6.0.0.318
% Date:               Feb 8 2022, 18:34
% Table:              Tabella 1 - GRIGLIA_T
% COIL_N                 COIL_kr                  COIL_kh                  FUNZ_freq                FUNZ_I_eff               Time (s)                 Temperatura (degC), Point: (0, 0)Temperatura (degC), Point: (15, 0)Temperatura (degC), Point: (27.483, 0)Temperatura (degC), Point: (28.742, 0)Temperatura (degC), Point: (29.497, 0)Temperatura (degC), Point: (29.99, 0)Temperatura (degC), Point: (0, 62.5)Temperatura (degC), Point: (15, 62.5)Temperatura (degC), Point: (27.483, 62.5)Temperatura (degC), Point: (28.742, 62.5)Temperatura (degC), Point: (29.497, 62.5)Temperatura (degC), Point: (29.99, 62.5)Temperatura (degC), Point: (0, 125)Temperatura (degC), Point: (15, 125)Temperatura (degC), Point: (27.483, 125)Temperatura (degC), Point: (28.742, 125)Temperatura (degC), Point: (29.497, 125)Temperatura (degC), Point: (29.99, 125)Temperatura (degC), Point: (0, 187.5)Temperatura (degC), Point: (15, 187.5)Temperatura (degC), Point: (27.483, 187.5)Temperatura (degC), Point: (28.742, 187.5)Temperatura (degC), Point: (29.497, 187.5)Temperatura (degC), Point: (29.99, 187.5)Temperatura (degC), Point: (0, 250)Temperatura (degC), Point: (15, 250)Temperatura (degC), Point: (27.483, 250)Temperatura (degC), Point: (28.742, 250)Temperatura (degC), Point: (29.497, 250)Temperatura (degC), Point: (29.99, 250)Temperatura (degC), Point: (0, 312.5)Temperatura (degC), Point: (15, 312.5)Temperatura (degC), Point: (27.483, 312.5)Temperatura (degC), Point: (28.742, 312.5)Temperatura (degC), Point: (29.497, 312.5)Temperatura (degC), Point: (29.99, 312.5)Temperatura (degC), Point: (0, 375)Temperatura (degC), Point: (15, 375)Temperatura (degC), Point: (27.483, 375)Temperatura (degC), Point: (28.742, 375)Temperatura (degC), Point: (29.497, 375)Temperatura (degC), Point: (29.99, 375)Temperatura (degC), Point: (0, 437.5)Temperatura (degC), Point: (15, 437.5)Temperatura (degC), Point: (27.483, 437.5)Temperatura (degC), Point: (28.742, 437.5)Temperatura (degC), Point: (29.497, 437.5)Temperatura (degC), Point: (29.99, 437.5)Temperatura (degC), Point: (0, 468.75)Temperatura (degC), Point: (15, 468.75)Temperatura (degC), Point: (27.483, 468.75)Temperatura (degC), Point: (28.742, 468.75)Temperatura (degC), Point: (29.497, 468.75)Temperatura (degC), Point: (29.99, 468.75)Temperatura (degC), Point: (0, 492.19)Temperatura (degC), Point: (15, 492.19)Temperatura (degC), Point: (27.483, 492.19)Temperatura (degC), Point: (28.742, 492.19)Temperatura (degC), Point: (29.497, 492.19)Temperatura (degC), Point: (29.99, 492.19)
12.000                   1.5000                   2.0000                   6000.0                   1000.0                   0.0000                   20.000                   20.000                   20.000                   20.000                   20.001                   20.052                   20.000                   20.000                   20.000                   20.000                   20.002                   20.074                   20.000                   20.000                   20.000                   20.000                   20.002                   20.084                   20.000                   20.000                   20.000                   20.000                   20.001                   20.059                   20.000                   20.000                   20.000                   20.000                   20.001                   20.058                   20.000                   20.000                   20.000                   20.000                   20.002                   20.083                   20.000                   20.000                   20.000                   20.000                   20.002                   20.075                   20.000                   20.000                   20.000                   20.000                   20.001                   20.052                   20.000                   20.000                   20.000                   20.000                   20.002                   20.081                   20.000                   20.000                   20.000                   20.000                   20.001                   20.070
12.000                   1.5000                   2.0000                   6000.0                   1000.0                   5.0000                   20.749                   22.592                   32.967                   34.748                   35.879                   36.503                   20.963                   23.500                   38.673                   41.392                   43.134                   44.067                   21.085                   24.018                   41.883                   45.119                   47.199                   48.289                   20.820                   22.890                   34.842                   36.946                   38.291                   39.022                   20.803                   22.824                   34.459                   36.515                   37.834                   38.535                   21.077                   23.985                   41.698                   44.906                   46.967                   48.049                   20.975                   23.553                   39.008                   41.782                   43.560                   44.509                   20.747                   22.588                   32.977                   34.767                   35.901                   36.527                   21.029                   23.808                   40.774                   43.853                   45.833                   46.879                   21.085                   23.717                   38.258                   40.802                   42.432                   43.311
12.000                   1.5000                   2.0000                   6000.0                   1000.0                   10.000                   24.992                   29.292                   42.395                   44.276                   45.450                   46.076                   26.116                   31.868                   50.507                   53.320                   55.096                   56.011                   26.753                   33.324                   55.031                   58.347                   60.445                   61.506                   25.372                   30.157                   45.069                   47.248                   48.612                   49.329                   25.282                   29.961                   44.516                   46.648                   47.989                   48.692                   26.706                   33.224                   54.755                   58.046                   60.128                   61.182                   26.175                   32.009                   50.972                   53.842                   55.656                   56.588                   24.985                   29.282                   42.367                   44.244                   45.416                   46.039                   26.431                   32.650                   53.249                   56.408                   58.409                   59.427                   26.627                   32.534                   50.488                   53.095                   54.736                   55.588
12.000                   1.5000                   2.0000                   6000.0                   1000.0                   15.000                   31.559                   37.324                   51.998                   53.995                   55.235                   55.889                   33.732                   41.253                   61.507                   64.399                   66.214                   67.138                   34.965                   43.485                   66.878                   70.268                   72.400                   73.465                   32.293                   38.639                   55.080                   57.345                   58.753                   59.487                   32.136                   38.385                   54.607                   56.848                   58.245                   58.974                   34.876                   43.335                   66.571                   69.939                   72.059                   73.118                   33.846                   41.471                   62.082                   65.036                   66.891                   67.833                   31.528                   37.273                   51.855                   53.834                   55.062                   55.710                   34.311                   42.376                   64.600                   67.834                   69.871                   70.896                   34.751                   42.425                   61.826                   64.481                   66.143                   66.996
12.000                   1.5000                   2.0000                   6000.0                   1000.0                   20.000                   39.591                   46.110                   61.654                   63.710                   64.983                   65.649                   42.614                   51.001                   72.165                   75.110                   76.953                   77.884                   44.337                   53.793                   78.146                   81.590                   83.752                   84.824                   40.612                   47.750                   65.057                   67.372                   68.806                   69.549                   40.360                   47.359                   64.176                   66.382                   67.740                   68.442                   44.214                   53.612                   77.821                   81.246                   83.395                   84.462                   42.775                   51.279                   72.822                   75.830                   77.715                   78.664                   39.501                   45.981                   61.378                   63.409                   64.665                   65.323                   43.388                   52.338                   75.477                   78.765                   80.831                   81.863                   44.141                   52.652                   72.826                   75.513                   77.190                   78.045
12.000                   1.5000                   2.0000                   6000.0                   1000.0                   25.000                   47.913                   55.065                   71.355                   73.464                   74.766                   75.443                   51.720                   60.834                   82.792                   85.787                   87.657                   88.596                   53.891                   64.129                   89.322                   92.819                   95.009                   96.089                   49.203                   57.007                   75.068                   77.430                   78.889                   79.639                   48.841                   56.457                   73.725                   75.886                   77.201                   77.873                   53.732                   63.913                   88.973                   92.453                   94.632                   95.707                   51.922                   61.164                   83.519                   86.580                   88.492                   89.450                   47.759                   54.854                   70.947                   73.024                   74.305                   74.971                   52.663                   62.352                   86.289                   89.628                   91.723                   92.761                   53.731                   62.936                   83.771                   86.489                   88.180                   89.039
12.000                   1.5000                   2.0000                   6000.0                   1000.0                   30.000                   57.216                   64.615                   81.265                   83.411                   84.736                   85.421                   61.563                   70.969                   93.365                   96.405                   98.302                   99.248                   64.015                   74.560                   100.22                   103.77                   105.99                   107.08                   58.711                   66.790                   85.254                   87.653                   89.133                   89.889                   58.178                   66.006                   83.388                   85.515                   86.802                   87.452                   63.806                   74.292                   99.822                   103.35                   105.56                   106.64                   61.778                   71.315                   94.117                   97.224                   99.164                   100.13                   56.980                   64.313                   80.731                   82.838                   84.137                   84.809                   62.579                   72.551                   96.923                   100.31                   102.43                   103.48                   63.944                   73.399                   94.552                   97.296                   99.003                   99.864
12.000                   1.5000                   2.0000                   6000.0                   1000.0                   35.000                   66.518                   74.165                   91.175                   93.358                   94.706                   95.399                   71.406                   81.103                   103.94                   107.02                   108.95                   109.90                   74.139                   84.990                   111.13                   114.72                   116.97                   118.07                   68.218                   76.573                   95.440                   97.876                   99.378                   100.14                   67.515                   75.555                   93.050                   95.144                   96.403                   97.030                   73.879                   84.670                   110.67                   114.25                   116.49                   117.58                   71.634                   81.466                   104.71                   107.87                   109.84                   110.81                   66.200                   73.771                   90.515                   92.652                   93.969                   94.647                   72.494                   82.749                   107.56                   110.99                   113.14                   114.20                   74.157                   83.862                   105.33                   108.10                   109.83                   110.69
12.000                   1.5000                   2.0000                   6000.0                   1000.0                   40.000                   75.820                   83.715                   101.09                   103.31                   104.68                   105.38                   81.249                   91.238                   114.51                   117.64                   119.59                   120.55                   84.263                   95.420                   122.03                   125.67                   127.96                   129.06                   77.725                   86.355                   105.63                   108.10                   109.62                   110.39                   76.853                   85.104                   102.71                   104.77                   106.00                   106.61                   83.953                   95.048                   121.52                   125.15                   127.42                   128.52                   81.489                   91.617                   115.31                   118.51                   120.51                   121.49                   75.421                   83.230                   100.30                   102.47                   103.80                   104.49                   82.409                   92.948                   118.19                   121.67                   123.85                   124.92                   84.369                   94.325                   116.11                   118.91                   120.65                   121.52
12.000                   1.5000                   2.0000                   6000.0                   1000.0                   45.000                   85.568                   93.566                   111.15                   113.39                   114.78                   115.49                   91.393                   101.52                   125.13                   128.30                   130.28                   131.25                   94.591                   105.89                   132.87                   136.56                   138.88                   139.99                   87.646                   96.408                   115.96                   118.47                   120.01                   120.79                   86.579                   94.915                   112.67                   114.75                   116.00                   116.59                   94.202                   105.44                   132.26                   135.94                   138.24                   139.35                   91.623                   101.89                   125.92                   129.17                   131.19                   132.18                   85.095                   93.007                   110.29                   112.48                   113.83                   114.52                   92.557                   103.22                   128.79                   132.32                   134.53                   135.60                   94.767                   104.82                   126.82                   129.65                   131.40                   132.27
12.000                   1.5000                   2.0000                   6000.0                   1000.0                   50.000                   95.549                   103.57                   121.29                   123.56                   124.96                   125.67                   101.69                   111.88                   135.77                   138.99                   141.00                   141.98                   105.02                   116.39                   143.67                   147.42                   149.77                   150.89                   97.782                   106.60                   126.38                   128.92                   130.48                   131.26                   96.510                   104.86                   122.78                   124.91                   126.20                   126.78                   104.54                   115.84                   142.95                   146.68                   149.01                   150.13                   101.90                   112.23                   136.54                   139.83                   141.88                   142.88                   95.006                   102.95                   120.38                   122.60                   123.97                   124.66                   102.83                   113.54                   139.37                   142.94                   145.18                   146.26                   105.26                   115.33                   137.49                   140.34                   142.11                   142.99
12.000                   1.5000                   2.0000                   6000.0                   1000.0                   55.000                   105.53                   113.58                   131.43                   133.72                   135.14                   135.85                   111.99                   122.25                   146.41                   149.67                   151.71                   152.70                   115.46                   126.89                   154.47                   158.28                   160.65                   161.79                   107.92                   116.80                   136.80                   139.37                   140.95                   141.73                   106.44                   114.81                   132.90                   135.08                   136.40                   136.98                   114.89                   126.23                   153.64                   157.42                   159.78                   160.91                   112.18                   122.57                   147.15                   150.49                   152.57                   153.58                   104.92                   112.89                   130.48                   132.72                   134.11                   134.80                   113.10                   123.85                   149.94                   153.56                   155.83                   156.92                   115.75                   125.85                   148.16                   151.04                   152.83                   153.71
12.000                   1.5000                   2.0000                   6000.0                   1000.0                   60.000                   115.58                   123.67                   141.66                   143.98                   145.41                   146.13                   122.33                   132.64                   157.07                   160.39                   162.46                   163.45                   125.91                   137.40                   165.29                   169.14                   171.55                   172.69                   118.10                   127.04                   147.26                   149.87                   151.47                   152.26                   116.45                   124.85                   143.16                   145.40                   146.76                   147.34                   125.25                   136.65                   164.35                   168.18                   170.57                   171.71                   122.49                   132.93                   157.79                   161.18                   163.29                   164.30                   114.90                   122.91                   140.67                   142.94                   144.34                   145.05                   123.39                   134.19                   160.55                   164.22                   166.52                   167.61                   126.24                   136.35                   158.82                   161.73                   163.54                   164.42
12.000                   1.5000                   2.0000                   6000.0                   1000.0                   65.000                   126.05                   134.21                   152.45                   154.81                   156.26                   156.98                   132.84                   143.21                   167.92                   171.28                   173.37                   174.38                   136.44                   148.00                   176.17                   180.08                   182.52                   183.66                   128.58                   137.57                   158.03                   160.68                   162.31                   163.11                   126.93                   135.45                   154.28                   156.63                   158.07                   158.68                   135.72                   147.19                   175.17                   179.05                   181.48                   182.62                   132.96                   143.47                   168.59                   172.02                   174.16                   175.18                   125.31                   133.40                   151.43                   153.74                   155.17                   155.88                   133.82                   144.68                   171.32                   175.03                   177.36                   178.46                   136.70                   146.83                   169.44                   172.37                   174.20                   175.08
12.000                   1.5000                   2.0000                   6000.0                   1000.0                   70.000                   136.52                   144.75                   163.25                   165.64                   167.11                   167.84                   143.35                   153.78                   178.76                   182.16                   184.29                   185.30                   146.97                   158.60                   187.06                   191.01                   193.48                   194.64                   139.06                   148.10                   168.80                   171.49                   173.15                   173.95                   137.41                   146.05                   165.41                   167.86                   169.37                   170.03                   146.19                   157.73                   186.00                   189.92                   192.38                   193.53                   143.43                   154.00                   179.39                   182.86                   185.03                   186.06                   135.72                   143.89                   162.19                   164.54                   165.99                   166.71                   144.26                   155.17                   182.08                   185.84                   188.20                   189.31                   147.15                   157.30                   180.06                   183.02                   184.86                   185.75
12.000                   1.5000                   2.0000                   6000.0                   1000.0                   75.000                   147.00                   155.30                   174.04                   176.46                   177.96                   178.69                   153.86                   164.36                   189.60                   193.05                   195.20                   196.22                   157.51                   169.19                   197.94                   201.94                   204.44                   205.61                   149.53                   158.63                   179.57                   182.30                   183.99                   184.80                   147.89                   156.64                   176.53                   179.09                   180.68                   181.38                   156.66                   168.26                   196.82                   200.79                   203.28                   204.44                   153.90                   164.53                   190.19                   193.70                   195.90                   196.94                   146.13                   154.37                   172.95                   175.34                   176.82                   177.54                   154.69                   165.67                   192.85                   196.65                   199.04                   200.16                   157.61                   167.78                   190.68                   193.66                   195.52                   196.41