% Model:              batchmodel_COIL_N_12_COIL_kr_2.25_COIL_kh_1.5_FUNZ_freq_2000_FUNZ_I_eff_1000.mph
% Version:            COMSOL 6.0.0.318
% Date:               Feb 8 2022, 19:06
% Table:              Tabella 1 - GRIGLIA_T
% COIL_N                 COIL_kr                  COIL_kh                  FUNZ_freq                FUNZ_I_eff               Time (s)                 Temperatura (degC), Point: (0, 0)Temperatura (degC), Point: (15, 0)Temperatura (degC), Point: (25.641, 0)Temperatura (degC), Point: (27.821, 0)Temperatura (degC), Point: (29.128, 0)Temperatura (degC), Point: (29.99, 0)Temperatura (degC), Point: (0, 62.5)Temperatura (degC), Point: (15, 62.5)Temperatura (degC), Point: (25.641, 62.5)Temperatura (degC), Point: (27.821, 62.5)Temperatura (degC), Point: (29.128, 62.5)Temperatura (degC), Point: (29.99, 62.5)Temperatura (degC), Point: (0, 125)Temperatura (degC), Point: (15, 125)Temperatura (degC), Point: (25.641, 125)Temperatura (degC), Point: (27.821, 125)Temperatura (degC), Point: (29.128, 125)Temperatura (degC), Point: (29.99, 125)Temperatura (degC), Point: (0, 187.5)Temperatura (degC), Point: (15, 187.5)Temperatura (degC), Point: (25.641, 187.5)Temperatura (degC), Point: (27.821, 187.5)Temperatura (degC), Point: (29.128, 187.5)Temperatura (degC), Point: (29.99, 187.5)Temperatura (degC), Point: (0, 250)Temperatura (degC), Point: (15, 250)Temperatura (degC), Point: (25.641, 250)Temperatura (degC), Point: (27.821, 250)Temperatura (degC), Point: (29.128, 250)Temperatura (degC), Point: (29.99, 250)Temperatura (degC), Point: (0, 312.5)Temperatura (degC), Point: (15, 312.5)Temperatura (degC), Point: (25.641, 312.5)Temperatura (degC), Point: (27.821, 312.5)Temperatura (degC), Point: (29.128, 312.5)Temperatura (degC), Point: (29.99, 312.5)Temperatura (degC), Point: (0, 375)Temperatura (degC), Point: (15, 375)Temperatura (degC), Point: (25.641, 375)Temperatura (degC), Point: (27.821, 375)Temperatura (degC), Point: (29.128, 375)Temperatura (degC), Point: (29.99, 375)Temperatura (degC), Point: (0, 437.5)Temperatura (degC), Point: (15, 437.5)Temperatura (degC), Point: (25.641, 437.5)Temperatura (degC), Point: (27.821, 437.5)Temperatura (degC), Point: (29.128, 437.5)Temperatura (degC), Point: (29.99, 437.5)Temperatura (degC), Point: (0, 468.75)Temperatura (degC), Point: (15, 468.75)Temperatura (degC), Point: (25.641, 468.75)Temperatura (degC), Point: (27.821, 468.75)Temperatura (degC), Point: (29.128, 468.75)Temperatura (degC), Point: (29.99, 468.75)Temperatura (degC), Point: (0, 492.19)Temperatura (degC), Point: (15, 492.19)Temperatura (degC), Point: (25.641, 492.19)Temperatura (degC), Point: (27.821, 492.19)Temperatura (degC), Point: (29.128, 492.19)Temperatura (degC), Point: (29.99, 492.19)
12.000                   2.2500                   1.5000                   2000.0                   1000.0                   0.0000                   20.000                   20.000                   20.000                   20.000                   20.000                   20.025                   20.000                   20.000                   20.000                   20.000                   20.000                   20.026                   20.000                   20.000                   20.000                   20.000                   20.000                   20.027                   20.000                   20.000                   20.000                   20.000                   20.000                   20.025                   20.000                   20.000                   20.000                   20.000                   20.000                   20.025                   20.000                   20.000                   20.000                   20.000                   20.000                   20.027                   20.000                   20.000                   20.000                   20.000                   20.000                   20.026                   20.000                   20.000                   20.000                   20.000                   20.000                   20.024                   20.000                   20.000                   20.000                   20.000                   20.000                   20.024                   20.000                   20.000                   20.000                   20.000                   20.000                   20.016
12.000                   2.2500                   1.5000                   2000.0                   1000.0                   5.0000                   20.681                   21.957                   27.126                   29.102                   30.441                   31.174                   20.713                   22.070                   27.615                   29.746                   31.193                   31.981                   20.729                   22.126                   27.861                   30.072                   31.576                   32.392                   20.688                   21.982                   27.237                   29.247                   30.610                   31.356                   20.693                   21.998                   27.307                   29.339                   30.718                   31.472                   20.730                   22.132                   27.891                   30.113                   31.624                   32.444                   20.706                   22.045                   27.509                   29.606                   31.030                   31.806                   20.673                   21.927                   27.012                   28.959                   30.280                   31.005                   20.863                   22.434                   28.819                   31.175                   32.550                   33.117                   21.337                   23.554                   30.373                   32.574                   33.131                   33.483
12.000                   2.2500                   1.5000                   2000.0                   1000.0                   10.000                   23.164                   25.992                   33.056                   35.180                   36.572                   37.324                   23.296                   26.291                   33.838                   36.124                   37.627                   38.434                   23.361                   26.439                   34.234                   36.604                   38.164                   39.000                   23.194                   26.060                   33.233                   35.393                   36.810                   37.575                   23.212                   26.102                   33.344                   35.528                   36.960                   37.733                   23.367                   26.455                   34.280                   36.660                   38.228                   39.068                   23.265                   26.222                   33.661                   35.911                   37.389                   38.184                   23.163                   25.949                   32.897                   34.985                   36.353                   37.093                   24.392                   28.460                   39.262                   42.397                   44.046                   44.645                   26.677                   32.826                   45.562                   48.384                   49.060                   49.382
12.000                   2.2500                   1.5000                   2000.0                   1000.0                   15.000                   26.978                   30.638                   38.497                   40.691                   42.106                   42.862                   27.222                   31.088                   39.466                   41.824                   43.350                   44.160                   27.342                   31.311                   39.955                   42.398                   43.982                   44.820                   27.033                   30.740                   38.716                   40.947                   42.387                   43.155                   27.067                   30.803                   38.853                   41.107                   42.563                   43.339                   27.352                   31.332                   40.008                   42.462                   44.053                   44.895                   27.160                   30.978                   39.237                   41.557                   43.058                   43.855                   27.166                   30.778                   38.490                   40.635                   42.017                   42.755                   30.745                   36.705                   50.639                   54.405                   56.281                   56.931                   35.729                   44.530                   60.451                   63.471                   64.281                   64.596
12.000                   2.2500                   1.5000                   2000.0                   1000.0                   20.000                   31.297                   35.488                   43.782                   46.019                   47.448                   48.204                   31.652                   36.070                   44.897                   47.299                   48.839                   49.648                   31.826                   36.358                   45.458                   47.945                   49.543                   50.380                   31.377                   35.619                   44.034                   46.307                   47.762                   48.530                   31.425                   35.700                   44.190                   46.487                   47.957                   48.733                   31.838                   36.383                   45.515                   48.012                   49.618                   50.459                   31.557                   35.921                   44.621                   46.984                   48.498                   49.295                   31.779                   35.922                   44.036                   46.209                   47.595                   48.329                   38.290                   45.819                   62.254                   66.560                   68.642                   69.327                   46.294                   57.075                   75.111                   78.258                   79.154                   79.459
12.000                   2.2500                   1.5000                   2000.0                   1000.0                   25.000                   36.214                   40.565                   48.983                   51.241                   52.682                   53.441                   36.655                   41.237                   50.187                   52.611                   54.162                   54.975                   36.871                   41.568                   50.791                   53.300                   54.910                   55.750                   36.312                   40.716                   49.254                   51.549                   53.015                   53.785                   36.371                   40.808                   49.421                   51.740                   53.221                   54.000                   36.883                   41.593                   50.848                   53.368                   54.985                   55.829                   36.532                   41.059                   49.885                   52.271                   53.797                   54.597                   37.346                   41.672                   49.945                   52.150                   53.556                   54.297                   47.494                   55.751                   73.041                   77.436                   79.526                   80.215                   58.662                   70.536                   89.785                   93.059                   93.989                   94.303
12.000                   2.2500                   1.5000                   2000.0                   1000.0                   30.000                   41.232                   45.694                   54.207                   56.483                   57.934                   58.696                   41.744                   46.438                   55.483                   57.925                   59.487                   60.302                   41.993                   46.803                   56.121                   58.650                   60.270                   61.113                   41.345                   45.860                   54.492                   56.806                   58.282                   59.056                   41.413                   45.960                   54.669                   57.006                   58.498                   59.279                   42.005                   46.828                   56.178                   58.717                   60.345                   61.191                   41.607                   46.246                   55.170                   57.576                   59.113                   59.917                   43.219                   47.674                   56.071                   58.304                   59.727                   60.474                   56.851                   65.570                   83.292                   87.681                   89.746                   90.430                   70.919                   83.536                   103.62                   106.99                   107.95                   108.27
12.000                   2.2500                   1.5000                   2000.0                   1000.0                   35.000                   46.402                   50.900                   59.464                   61.754                   63.214                   63.978                   46.960                   51.690                   60.787                   63.243                   64.815                   65.632                   47.232                   52.078                   61.448                   63.991                   65.621                   66.466                   46.524                   51.075                   59.758                   62.086                   63.571                   64.347                   46.597                   51.180                   59.939                   62.291                   63.792                   64.575                   47.241                   52.100                   61.502                   64.056                   65.693                   66.542                   46.830                   51.507                   60.487                   62.908                   64.456                   65.262                   49.550                   54.054                   62.524                   64.777                   66.212                   66.963                   66.440                   75.223                   92.739                   96.983                   98.968                   99.633                   83.010                   95.845                   116.21                   119.62                   120.59                   120.93
12.000                   2.2500                   1.5000                   2000.0                   1000.0                   40.000                   51.572                   56.107                   64.721                   67.025                   68.494                   69.260                   52.176                   56.943                   66.091                   68.562                   70.142                   70.962                   52.471                   57.353                   66.774                   69.332                   70.971                   71.818                   51.703                   56.290                   65.024                   67.366                   68.860                   69.638                   51.780                   56.400                   65.210                   67.576                   69.085                   69.871                   52.477                   57.372                   66.826                   69.395                   71.042                   71.893                   52.053                   56.769                   65.804                   68.241                   69.799                   70.608                   55.881                   60.435                   68.977                   71.250                   72.698                   73.453                   76.028                   84.875                   102.19                   106.28                   108.19                   108.84                   95.101                   108.15                   128.80                   132.25                   133.23                   133.58
12.000                   2.2500                   1.5000                   2000.0                   1000.0                   45.000                   56.761                   61.327                   69.988                   72.305                   73.782                   74.551                   57.407                   62.204                   71.400                   73.884                   75.474                   76.295                   57.721                   62.634                   72.103                   74.675                   76.323                   77.172                   56.900                   61.518                   70.300                   72.654                   74.157                   74.937                   56.982                   61.632                   70.490                   72.868                   74.386                   75.174                   57.726                   62.651                   72.153                   74.736                   76.392                   77.245                   57.300                   62.048                   71.136                   73.587                   75.154                   75.965                   62.316                   66.911                   75.516                   77.806                   79.264                   80.022                   85.649                   94.559                   111.77                   115.79                   117.66                   118.30                   107.13                   120.38                   141.29                   144.77                   145.76                   146.13
12.000                   2.2500                   1.5000                   2000.0                   1000.0                   50.000                   62.028                   66.603                   75.295                   77.622                   79.105                   79.875                   62.696                   67.502                   76.730                   79.224                   80.820                   81.643                   63.020                   67.942                   77.444                   80.025                   81.681                   82.531                   62.170                   66.797                   75.610                   77.974                   79.483                   80.264                   62.253                   66.913                   75.802                   78.190                   79.714                   80.503                   63.022                   67.956                   77.492                   80.085                   81.748                   82.602                   62.642                   67.401                   76.524                   78.985                   80.560                   81.372                   69.166                   73.771                   82.399                   84.694                   86.156                   86.913                   95.402                   104.37                   121.90                   126.11                   128.13                   128.79                   118.90                   132.27                   153.38                   156.86                   157.88                   158.24
12.000                   2.2500                   1.5000                   2000.0                   1000.0                   55.000                   67.296                   71.879                   80.603                   82.939                   84.428                   85.199                   67.985                   72.799                   82.060                   84.564                   86.167                   86.990                   68.319                   73.249                   82.785                   85.376                   87.038                   87.889                   67.441                   72.076                   80.921                   83.295                   84.809                   85.592                   67.525                   72.193                   81.114                   83.511                   85.042                   85.832                   68.318                   73.261                   82.830                   85.433                   87.103                   87.958                   67.985                   72.754                   81.912                   84.384                   85.965                   86.778                   76.016                   80.630                   89.282                   91.582                   93.048                   93.803                   105.15                   114.18                   132.03                   136.43                   138.60                   139.29                   130.67                   144.15                   165.48                   168.95                   169.99                   170.36
12.000                   2.2500                   1.5000                   2000.0                   1000.0                   60.000                   72.563                   77.155                   85.910                   88.256                   89.751                   90.523                   73.274                   78.097                   87.390                   89.904                   91.513                   92.338                   73.618                   78.556                   88.125                   90.727                   92.396                   93.248                   72.711                   77.356                   86.232                   88.615                   90.136                   90.919                   72.796                   77.473                   86.426                   88.833                   90.370                   91.161                   73.614                   78.566                   88.169                   90.782                   92.459                   93.315                   73.328                   78.107                   87.300                   89.783                   91.371                   92.185                   82.866                   87.490                   96.165                   98.471                   99.939                   100.69                   114.91                   123.99                   142.15                   146.75                   149.07                   149.79                   142.43                   156.04                   177.57                   181.04                   182.11                   182.48
12.000                   2.2500                   1.5000                   2000.0                   1000.0                   65.000                   77.886                   82.491                   91.282                   93.639                   95.142                   95.915                   78.604                   83.440                   92.773                   95.299                   96.916                   97.742                   78.951                   83.903                   93.512                   96.126                   97.803                   98.657                   78.033                   82.691                   91.604                   93.999                   95.528                   96.312                   78.118                   82.808                   91.798                   94.216                   95.761                   96.554                   78.949                   83.915                   93.558                   96.184                   97.869                   98.726                   78.796                   83.590                   92.822                   95.317                   96.913                   97.729                   89.932                   94.555                   103.24                   105.54                   107.01                   107.77                   124.07                   133.14                   151.38                   156.07                   158.44                   159.17                   152.86                   166.41                   187.70                   191.09                   192.13                   192.48
12.000                   2.2500                   1.5000                   2000.0                   1000.0                   70.000                   83.208                   87.827                   96.654                   99.023                   100.53                   101.31                   83.934                   88.784                   98.155                   100.69                   102.32                   103.15                   84.284                   89.250                   98.898                   101.53                   103.21                   104.07                   83.356                   88.026                   96.976                   99.383                   100.92                   101.71                   83.439                   88.143                   97.170                   99.600                   101.15                   101.95                   84.285                   89.265                   98.948                   101.59                   103.28                   104.14                   84.263                   89.072                   98.344                   100.85                   102.46                   103.27                   96.997                   101.62                   110.31                   112.62                   114.09                   114.84                   133.23                   142.29                   160.61                   165.39                   167.82                   168.56                   163.28                   176.77                   197.84                   201.14                   202.15                   202.48
12.000                   2.2500                   1.5000                   2000.0                   1000.0                   75.000                   88.531                   93.162                   102.03                   104.41                   105.92                   106.70                   89.263                   94.128                   103.54                   106.09                   107.72                   108.55                   89.616                   94.597                   104.28                   106.92                   108.62                   109.47                   88.678                   93.362                   102.35                   104.77                   106.31                   107.10                   88.761                   93.478                   102.54                   104.98                   106.54                   107.34                   89.620                   94.615                   104.34                   106.99                   108.69                   109.55                   89.731                   94.554                   103.87                   106.39                   108.00                   108.82                   104.06                   108.69                   117.38                   119.69                   121.16                   121.91                   142.38                   151.44                   169.84                   174.70                   177.20                   177.94                   173.70                   187.14                   207.97                   211.18                   212.18                   212.48