% Model:              batchmodel_COIL_N_12_COIL_kr_2.25_COIL_kh_1.5_FUNZ_freq_2000_FUNZ_I_eff_4000.mph
% Version:            COMSOL 6.0.0.318
% Date:               Feb 8 2022, 19:29
% Table:              Tabella 1 - GRIGLIA_T
% COIL_N                 COIL_kr                  COIL_kh                  FUNZ_freq                FUNZ_I_eff               Time (s)                 Temperatura (degC), Point: (0, 0)Temperatura (degC), Point: (15, 0)Temperatura (degC), Point: (25.641, 0)Temperatura (degC), Point: (27.821, 0)Temperatura (degC), Point: (29.128, 0)Temperatura (degC), Point: (29.99, 0)Temperatura (degC), Point: (0, 62.5)Temperatura (degC), Point: (15, 62.5)Temperatura (degC), Point: (25.641, 62.5)Temperatura (degC), Point: (27.821, 62.5)Temperatura (degC), Point: (29.128, 62.5)Temperatura (degC), Point: (29.99, 62.5)Temperatura (degC), Point: (0, 125)Temperatura (degC), Point: (15, 125)Temperatura (degC), Point: (25.641, 125)Temperatura (degC), Point: (27.821, 125)Temperatura (degC), Point: (29.128, 125)Temperatura (degC), Point: (29.99, 125)Temperatura (degC), Point: (0, 187.5)Temperatura (degC), Point: (15, 187.5)Temperatura (degC), Point: (25.641, 187.5)Temperatura (degC), Point: (27.821, 187.5)Temperatura (degC), Point: (29.128, 187.5)Temperatura (degC), Point: (29.99, 187.5)Temperatura (degC), Point: (0, 250)Temperatura (degC), Point: (15, 250)Temperatura (degC), Point: (25.641, 250)Temperatura (degC), Point: (27.821, 250)Temperatura (degC), Point: (29.128, 250)Temperatura (degC), Point: (29.99, 250)Temperatura (degC), Point: (0, 312.5)Temperatura (degC), Point: (15, 312.5)Temperatura (degC), Point: (25.641, 312.5)Temperatura (degC), Point: (27.821, 312.5)Temperatura (degC), Point: (29.128, 312.5)Temperatura (degC), Point: (29.99, 312.5)Temperatura (degC), Point: (0, 375)Temperatura (degC), Point: (15, 375)Temperatura (degC), Point: (25.641, 375)Temperatura (degC), Point: (27.821, 375)Temperatura (degC), Point: (29.128, 375)Temperatura (degC), Point: (29.99, 375)Temperatura (degC), Point: (0, 437.5)Temperatura (degC), Point: (15, 437.5)Temperatura (degC), Point: (25.641, 437.5)Temperatura (degC), Point: (27.821, 437.5)Temperatura (degC), Point: (29.128, 437.5)Temperatura (degC), Point: (29.99, 437.5)Temperatura (degC), Point: (0, 468.75)Temperatura (degC), Point: (15, 468.75)Temperatura (degC), Point: (25.641, 468.75)Temperatura (degC), Point: (27.821, 468.75)Temperatura (degC), Point: (29.128, 468.75)Temperatura (degC), Point: (29.99, 468.75)Temperatura (degC), Point: (0, 492.19)Temperatura (degC), Point: (15, 492.19)Temperatura (degC), Point: (25.641, 492.19)Temperatura (degC), Point: (27.821, 492.19)Temperatura (degC), Point: (29.128, 492.19)Temperatura (degC), Point: (29.99, 492.19)
12.000                   2.2500                   1.5000                   2000.0                   4000.0                   0.0000                   20.000                   20.000                   20.000                   20.000                   20.019                   20.117                   20.000                   20.000                   20.000                   20.000                   20.023                   20.128                   20.000                   20.000                   20.000                   20.000                   20.025                   20.134                   20.000                   20.000                   20.000                   20.000                   20.020                   20.119                   20.000                   20.000                   20.000                   20.000                   20.021                   20.121                   20.000                   20.000                   20.000                   20.000                   20.025                   20.135                   20.000                   20.000                   20.000                   20.000                   20.022                   20.126                   20.000                   20.000                   20.000                   20.000                   20.018                   20.116                   20.000                   20.000                   20.000                   20.000                   20.022                   20.126                   20.000                   20.000                   20.000                   20.000                   20.015                   20.107
12.000                   2.2500                   1.5000                   2000.0                   4000.0                   5.0000                   23.854                   36.124                   86.206                   104.12                   113.95                   118.29                   24.119                   37.439                   93.103                   113.95                   127.89                   133.32                   24.302                   38.385                   98.480                   121.37                   136.76                   142.49                   23.899                   36.384                   88.405                   107.34                   119.65                   124.62                   23.998                   36.898                   91.449                   111.72                   124.77                   129.95                   24.357                   38.679                   100.05                   123.54                   139.28                   145.11                   24.085                   37.309                   92.760                   113.27                   126.65                   131.69                   23.834                   36.098                   87.003                   105.79                   117.53                   122.24                   23.948                   36.723                   90.255                   110.17                   123.32                   128.35                   26.157                   38.299                   83.824                   99.666                   109.57                   113.71
12.000                   2.2500                   1.5000                   2000.0                   4000.0                   10.000                   46.188                   75.872                   149.30                   172.24                   186.68                   192.38                   47.832                   79.970                   160.75                   186.44                   202.93                   208.85                   48.955                   82.732                   168.06                   194.82                   211.73                   217.70                   46.631                   77.162                   154.05                   177.86                   192.59                   198.05                   47.094                   78.080                   155.40                   178.60                   192.57                   197.87                   49.228                   83.380                   169.45                   196.35                   213.01                   218.83                   47.499                   79.046                   157.13                   181.22                   196.48                   202.06                   46.064                   75.791                   149.65                   172.77                   187.40                   192.80                   46.351                   76.520                   152.79                   177.38                   193.16                   198.65                   51.787                   78.959                   141.80                   159.90                   170.81                   174.95
12.000                   2.2500                   1.5000                   2000.0                   4000.0                   15.000                   85.567                   124.52                   210.86                   236.56                   253.07                   258.87                   88.778                   130.20                   222.07                   249.51                   266.68                   272.52                   90.749                   133.67                   229.59                   258.27                   276.03                   281.99                   86.430                   126.13                   214.55                   240.26                   256.01                   261.63                   87.197                   127.30                   216.54                   242.00                   257.09                   262.52                   91.016                   134.09                   230.25                   258.99                   276.69                   282.72                   87.859                   128.53                   218.54                   245.20                   262.22                   268.14                   84.938                   123.62                   209.08                   234.46                   250.50                   256.07                   84.639                   123.19                   209.79                   236.07                   252.76                   258.41                   91.889                   124.96                   194.67                   213.24                   224.73                   228.86
12.000                   2.2500                   1.5000                   2000.0                   4000.0                   20.000                   131.55                   175.40                   269.32                   297.15                   314.41                   320.15                   135.96                   182.34                   282.91                   313.14                   331.92                   338.09                   138.43                   186.17                   290.38                   321.93                   341.50                   347.87                   132.62                   177.08                   272.61                   300.96                   318.59                   324.42                   133.63                   178.49                   274.93                   303.57                   321.40                   327.31                   138.57                   186.39                   290.94                   322.65                   342.32                   348.72                   134.49                   180.12                   278.88                   308.54                   326.96                   333.01                   130.01                   173.24                   265.39                   292.54                   309.38                   315.05                   128.24                   170.75                   262.74                   290.20                   307.36                   313.13                   130.51                   166.52                   237.67                   257.23                   269.45                   273.84
12.000                   2.2500                   1.5000                   2000.0                   4000.0                   25.000                   179.57                   227.56                   330.90                   361.95                   380.57                   386.46                   184.85                   235.37                   345.44                   378.90                   399.38                   405.86                   187.63                   239.45                   353.21                   388.09                   409.37                   416.06                   180.84                   229.48                   334.86                   366.56                   385.93                   391.98                   181.94                   230.87                   336.71                   368.55                   388.10                   394.29                   187.66                   239.57                   353.92                   389.06                   410.54                   417.31                   182.94                   232.72                   341.20                   374.29                   394.45                   400.74                   176.89                   223.99                   324.79                   354.87                   373.02                   378.89                   172.93                   218.73                   317.88                   347.69                   366.08                   372.02                   170.96                   209.47                   285.33                   306.15                   318.99                   323.51
12.000                   2.2500                   1.5000                   2000.0                   4000.0                   30.000                   228.94                   280.47                   393.02                   427.22                   447.65                   453.85                   234.77                   288.96                   408.90                   445.80                   467.81                   474.41                   237.72                   293.25                   417.11                   455.51                   478.31                   485.09                   230.34                   282.55                   397.03                   431.90                   452.80                   459.10                   231.46                   283.95                   399.15                   434.32                   455.41                   461.79                   237.68                   293.33                   417.67                   456.27                   479.19                   486.01                   232.55                   285.98                   404.06                   440.35                   462.02                   468.51                   224.80                   275.14                   384.42                   417.44                   437.25                   443.34                   218.00                   266.46                   372.69                   405.07                   424.71                   430.80                   211.46                   251.61                   330.87                   352.99                   366.58                   371.14
12.000                   2.2500                   1.5000                   2000.0                   4000.0                   35.000                   278.13                   333.24                   455.13                   492.60                   514.66                   521.07                   284.34                   342.16                   471.73                   512.04                   535.51                   542.23                   287.39                   346.57                   480.04                   521.81                   546.03                   552.91                   279.62                   335.41                   459.18                   497.32                   519.71                   526.19                   280.74                   336.82                   461.48                   500.02                   522.60                   529.13                   287.30                   346.60                   480.51                   522.43                   546.72                   553.62                   281.86                   338.93                   466.48                   506.08                   529.20                   535.84                   272.42                   326.04                   443.86                   479.88                   501.17                   507.44                   262.57                   313.70                   427.01                   461.89                   482.70                   488.91                   251.97                   293.72                   376.51                   399.81                   414.02                   418.60
12.000                   2.2500                   1.5000                   2000.0                   4000.0                   40.000                   327.19                   385.91                   517.24                   558.06                   581.61                   588.18                   333.67                   395.10                   534.13                   577.85                   602.72                   609.55                   336.78                   399.55                   542.30                   587.34                   612.92                   619.90                   328.75                   388.14                   521.31                   562.80                   586.63                   593.26                   329.85                   389.55                   523.73                   565.67                   589.70                   596.36                   336.65                   399.53                   542.71                   587.88                   613.48                   620.48                   330.98                   391.65                   528.61                   571.58                   596.12                   602.88                   319.83                   376.76                   503.18                   542.23                   564.89                   571.29                   306.80                   360.62                   480.99                   518.35                   540.25                   546.55                   292.48                   335.82                   422.22                   446.61                   461.35                   465.93
12.000                   2.2500                   1.5000                   2000.0                   4000.0                   45.000                   375.18                   437.27                   577.86                   622.37                   647.58                   654.28                   381.69                   446.39                   594.23                   641.70                   668.23                   675.14                   384.78                   450.72                   601.88                   650.49                   677.54                   684.56                   376.73                   439.43                   581.59                   626.70                   652.15                   658.90                   377.78                   440.80                   584.05                   629.69                   655.37                   662.15                   384.60                   450.67                   602.28                   651.01                   678.03                   685.06                   378.88                   442.85                   588.81                   635.54                   661.77                   668.66                   366.26                   426.28                   561.06                   603.27                   627.37                   633.87                   350.21                   406.64                   534.15                   574.05                   597.08                   603.45                   332.59                   377.51                   467.59                   493.18                   508.47                   513.06
12.000                   2.2500                   1.5000                   2000.0                   4000.0                   50.000                   422.15                   487.18                   635.27                   682.90                   709.59                   716.37                   428.64                   496.15                   651.13                   702.03                   730.29                   737.31                   431.69                   500.36                   658.46                   710.65                   739.41                   746.51                   423.67                   489.23                   638.59                   686.75                   713.68                   720.53                   424.67                   490.55                   641.06                   689.86                   717.06                   723.94                   431.48                   500.28                   658.88                   711.22                   739.93                   747.03                   425.74                   492.55                   645.79                   695.85                   723.73                   730.73                   411.79                   474.57                   616.38                   661.28                   686.59                   693.16                   392.93                   451.82                   585.93                   628.30                   652.40                   658.80                   372.27                   418.72                   512.40                   539.15                   554.97                   559.55
12.000                   2.2500                   1.5000                   2000.0                   4000.0                   55.000                   465.96                   532.41                   681.62                   730.08                   757.47                   764.21                   472.36                   541.17                   697.42                   750.47                   780.58                   787.73                   475.36                   545.33                   705.40                   761.05                   792.39                   799.72                   467.42                   534.32                   684.51                   733.45                   761.22                   768.08                   468.36                   535.56                   686.89                   736.66                   764.83                   771.72                   475.12                   545.24                   705.95                   761.94                   793.24                   800.56                   469.38                   537.53                   691.91                   743.51                   772.77                   779.84                   454.48                   518.95                   663.04                   708.87                   734.52                   740.93                   433.48                   494.37                   633.05                   677.61                   702.52                   708.84                   410.54                   458.36                   555.33                   583.06                   599.26                   603.78
12.000                   2.2500                   1.5000                   2000.0                   4000.0                   60.000                   507.77                   574.73                   726.29                   778.78                   807.63                   814.33                   514.12                   583.48                   744.49                   802.72                   834.59                   841.73                   517.10                   587.69                   754.27                   815.78                   849.12                   856.40                   509.17                   576.55                   729.23                   782.21                   811.52                   818.36                   510.05                   577.73                   731.73                   785.66                   815.33                   822.20                   516.85                   587.63                   755.26                   817.32                   850.67                   857.94                   511.08                   579.79                   738.08                   794.49                   825.42                   832.45                   495.30                   560.56                   706.21                   754.79                   781.78                   788.21                   472.40                   534.47                   674.94                   720.78                   746.45                   752.73                   447.56                   496.50                   595.64                   624.09                   640.54                   644.96
12.000                   2.2500                   1.5000                   2000.0                   4000.0                   65.000                   547.93                   614.68                   769.59                   828.71                   859.67                   866.33                   554.28                   623.57                   792.19                   858.07                   891.66                   898.63                   557.27                   627.91                   804.70                   874.08                   908.91                   915.92                   549.30                   616.45                   772.94                   832.65                   864.07                   870.87                   550.12                   617.58                   775.76                   836.46                   868.08                   874.87                   557.02                   627.92                   806.39                   876.51                   911.46                   918.47                   551.18                   619.81                   784.29                   848.18                   881.00                   887.92                   534.60                   599.91                   746.53                   799.33                   828.49                   835.09                   510.00                   572.57                   712.57                   758.91                   785.30                   791.59                   483.54                   533.41                   633.78                   662.77                   679.36                   683.63
12.000                   2.2500                   1.5000                   2000.0                   4000.0                   70.000                   583.89                   649.75                   816.70                   879.19                   909.93                   915.99                   590.33                   659.23                   845.56                   914.15                   946.71                   952.80                   593.39                   663.96                   861.85                   933.66                   967.06                   973.05                   585.25                   651.63                   821.65                   885.03                   916.10                   922.20                   586.05                   652.80                   825.09                   889.18                   920.42                   926.52                   593.18                   664.08                   863.95                   936.42                   969.93                   975.90                   587.21                   655.37                   836.19                   903.26                   935.41                   941.53                   570.10                   634.60                   789.86                   847.50                   877.42                   883.67                   544.34                   606.02                   746.90                   797.22                   824.78                   830.96                   516.91                   566.46                   665.23                   693.68                   709.91                   713.95
12.000                   2.2500                   1.5000                   2000.0                   4000.0                   75.000                   618.95                   683.68                   864.22                   928.40                   958.14                   963.43                   625.50                   693.78                   899.35                   968.47                   999.10                   1004.1                   628.65                   698.94                   920.30                   992.81                   1023.6                   1028.3                   620.31                   685.69                   870.85                   936.13                   966.05                   971.30                   621.10                   686.92                   874.99                   940.74                   970.81                   976.04                   628.48                   699.16                   923.06                   996.30                   1027.1                   1031.7                   622.38                   689.85                   888.70                   956.99                   987.65                   992.82                   604.79                   668.26                   833.95                   895.78                   925.78                   931.50                   578.00                   638.50                   780.98                   835.43                   863.93                   869.92                   549.75                   598.67                   695.06                   722.59                   738.33                   742.10