% Model:              batchmodel_COIL_N_12_COIL_kr_3_COIL_kh_1.5_FUNZ_freq_6000_FUNZ_I_eff_1000.mph
% Version:            COMSOL 6.0.0.318
% Date:               Feb 8 2022, 20:06
% Table:              Tabella 1 - GRIGLIA_T
% COIL_N                 COIL_kr                  COIL_kh                  FUNZ_freq                FUNZ_I_eff               Time (s)                 Temperatura (degC), Point: (0, 0)Temperatura (degC), Point: (15, 0)Temperatura (degC), Point: (27.483, 0)Temperatura (degC), Point: (28.742, 0)Temperatura (degC), Point: (29.497, 0)Temperatura (degC), Point: (29.99, 0)Temperatura (degC), Point: (0, 62.5)Temperatura (degC), Point: (15, 62.5)Temperatura (degC), Point: (27.483, 62.5)Temperatura (degC), Point: (28.742, 62.5)Temperatura (degC), Point: (29.497, 62.5)Temperatura (degC), Point: (29.99, 62.5)Temperatura (degC), Point: (0, 125)Temperatura (degC), Point: (15, 125)Temperatura (degC), Point: (27.483, 125)Temperatura (degC), Point: (28.742, 125)Temperatura (degC), Point: (29.497, 125)Temperatura (degC), Point: (29.99, 125)Temperatura (degC), Point: (0, 187.5)Temperatura (degC), Point: (15, 187.5)Temperatura (degC), Point: (27.483, 187.5)Temperatura (degC), Point: (28.742, 187.5)Temperatura (degC), Point: (29.497, 187.5)Temperatura (degC), Point: (29.99, 187.5)Temperatura (degC), Point: (0, 250)Temperatura (degC), Point: (15, 250)Temperatura (degC), Point: (27.483, 250)Temperatura (degC), Point: (28.742, 250)Temperatura (degC), Point: (29.497, 250)Temperatura (degC), Point: (29.99, 250)Temperatura (degC), Point: (0, 312.5)Temperatura (degC), Point: (15, 312.5)Temperatura (degC), Point: (27.483, 312.5)Temperatura (degC), Point: (28.742, 312.5)Temperatura (degC), Point: (29.497, 312.5)Temperatura (degC), Point: (29.99, 312.5)Temperatura (degC), Point: (0, 375)Temperatura (degC), Point: (15, 375)Temperatura (degC), Point: (27.483, 375)Temperatura (degC), Point: (28.742, 375)Temperatura (degC), Point: (29.497, 375)Temperatura (degC), Point: (29.99, 375)Temperatura (degC), Point: (0, 437.5)Temperatura (degC), Point: (15, 437.5)Temperatura (degC), Point: (27.483, 437.5)Temperatura (degC), Point: (28.742, 437.5)Temperatura (degC), Point: (29.497, 437.5)Temperatura (degC), Point: (29.99, 437.5)Temperatura (degC), Point: (0, 468.75)Temperatura (degC), Point: (15, 468.75)Temperatura (degC), Point: (27.483, 468.75)Temperatura (degC), Point: (28.742, 468.75)Temperatura (degC), Point: (29.497, 468.75)Temperatura (degC), Point: (29.99, 468.75)Temperatura (degC), Point: (0, 492.19)Temperatura (degC), Point: (15, 492.19)Temperatura (degC), Point: (27.483, 492.19)Temperatura (degC), Point: (28.742, 492.19)Temperatura (degC), Point: (29.497, 492.19)Temperatura (degC), Point: (29.99, 492.19)
12.000                   3.0000                   1.5000                   6000.0                   1000.0                   0.0000                   20.000                   20.000                   20.000                   20.000                   20.001                   20.064                   20.000                   20.000                   20.000                   20.000                   20.001                   20.065                   20.000                   20.000                   20.000                   20.000                   20.001                   20.066                   20.000                   20.000                   20.000                   20.000                   20.001                   20.064                   20.000                   20.000                   20.000                   20.000                   20.001                   20.065                   20.000                   20.000                   20.000                   20.000                   20.001                   20.066                   20.000                   20.000                   20.000                   20.000                   20.001                   20.065                   20.000                   20.000                   20.000                   20.000                   20.001                   20.063                   20.000                   20.000                   20.000                   20.000                   20.001                   20.061                   20.000                   20.000                   20.000                   20.000                   20.000                   20.045
12.000                   3.0000                   1.5000                   6000.0                   1000.0                   5.0000                   21.349                   24.435                   39.851                   42.706                   44.436                   45.267                   21.391                   24.578                   40.402                   43.280                   45.019                   45.856                   21.423                   24.702                   41.053                   44.053                   45.825                   46.659                   21.345                   24.414                   39.692                   42.514                   44.226                   45.047                   21.354                   24.445                   39.859                   42.698                   44.415                   45.242                   21.433                   24.740                   41.214                   44.227                   46.003                   46.838                   21.385                   24.561                   40.417                   43.336                   45.098                   45.949                   21.339                   24.407                   39.755                   42.582                   44.274                   45.083                   21.378                   24.394                   39.628                   42.456                   43.975                   44.701                   23.444                   28.119                   42.250                   44.544                   45.539                   46.014
12.000                   3.0000                   1.5000                   6000.0                   1000.0                   10.000                   26.751                   32.576                   49.481                   51.894                   53.399                   54.190                   26.894                   32.852                   50.072                   52.526                   54.077                   54.891                   26.975                   33.023                   50.559                   53.064                   54.634                   55.456                   26.731                   32.533                   49.414                   51.850                   53.364                   54.159                   26.770                   32.611                   49.620                   52.079                   53.607                   54.407                   27.009                   33.087                   50.655                   53.165                   54.742                   55.572                   26.876                   32.814                   49.961                   52.390                   53.925                   54.731                   26.651                   32.381                   48.970                   51.341                   52.812                   53.583                   26.667                   32.094                   47.521                   49.694                   51.078                   51.816                   29.092                   34.583                   46.919                   48.386                   49.303                   49.807
12.000                   3.0000                   1.5000                   6000.0                   1000.0                   15.000                   34.222                   41.243                   59.305                   61.838                   63.390                   64.183                   34.453                   41.606                   59.939                   62.485                   64.071                   64.888                   34.538                   41.754                   60.412                   63.063                   64.658                   65.477                   34.173                   41.162                   59.181                   61.732                   63.289                   64.086                   34.248                   41.284                   59.440                   62.009                   63.574                   64.374                   34.593                   41.833                   60.457                   63.081                   64.689                   65.518                   34.394                   41.503                   59.722                   62.240                   63.813                   64.622                   33.911                   40.766                   58.443                   60.934                   62.454                   63.229                   33.613                   39.966                   56.189                   58.477                   59.877                   60.611                   35.289                   41.040                   53.527                   55.089                   56.010                   56.510
12.000                   3.0000                   1.5000                   6000.0                   1000.0                   20.000                   42.201                   50.000                   68.646                   71.212                   72.785                   73.579                   42.522                   50.483                   69.618                   72.225                   73.836                   74.654                   42.587                   50.575                   69.921                   72.648                   74.250                   75.065                   42.129                   49.912                   68.660                   71.249                   72.835                   73.636                   42.236                   50.064                   68.906                   71.504                   73.078                   73.878                   42.661                   50.667                   69.929                   72.578                   74.203                   75.031                   42.406                   50.296                   69.222                   71.788                   73.381                   74.193                   41.639                   49.236                   67.550                   70.064                   71.620                   72.403                   40.897                   47.853                   64.633                   66.982                   68.401                   69.138                   41.669                   47.555                   60.064                   61.647                   62.583                   63.087
12.000                   3.0000                   1.5000                   6000.0                   1000.0                   25.000                   51.211                   59.297                   78.360                   80.954                   82.545                   83.342                   51.560                   59.801                   79.321                   81.959                   83.587                   84.409                   51.565                   59.824                   79.565                   82.327                   83.948                   84.766                   51.039                   59.090                   78.209                   80.828                   82.433                   83.238                   51.204                   59.309                   78.521                   81.148                   82.734                   83.532                   51.625                   59.886                   79.499                   82.180                   83.817                   84.646                   51.320                   59.474                   78.771                   81.367                   82.976                   83.791                   50.189                   58.042                   76.723                   79.271                   80.842                   81.628                   48.832                   55.977                   73.019                   75.389                   76.820                   77.559                   49.010                   55.052                   67.750                   69.344                   70.284                   70.788
12.000                   3.0000                   1.5000                   6000.0                   1000.0                   30.000                   60.477                   68.729                   88.166                   90.789                   92.396                   93.197                   60.839                   69.228                   89.030                   91.691                   93.334                   94.161                   60.774                   69.180                   89.243                   92.031                   93.672                   94.495                   60.186                   68.375                   87.776                   90.423                   92.043                   92.853                   60.417                   68.669                   88.174                   90.828                   92.428                   93.224                   60.811                   69.201                   89.093                   91.808                   93.456                   94.286                   60.458                   68.748                   88.331                   90.954                   92.578                   93.396                   58.944                   66.930                   85.913                   88.498                   90.078                   90.867                   56.929                   64.159                   81.392                   83.773                   85.212                   85.953                   56.591                   62.795                   75.721                   77.324                   78.266                   78.769
12.000                   3.0000                   1.5000                   6000.0                   1000.0                   35.000                   69.744                   78.160                   97.971                   100.62                   102.25                   103.05                   70.118                   78.655                   98.739                   101.42                   103.08                   103.91                   69.984                   78.535                   98.921                   101.73                   103.40                   104.22                   69.332                   77.659                   97.342                   100.02                   101.65                   102.47                   69.630                   78.029                   97.826                   100.51                   102.12                   102.92                   69.998                   78.515                   98.688                   101.44                   103.09                   103.93                   69.596                   78.022                   97.891                   100.54                   102.18                   103.00                   67.700                   75.819                   95.102                   97.724                   99.314                   100.11                   65.026                   72.342                   89.764                   92.156                   93.604                   94.347                   64.171                   70.537                   83.693                   85.304                   86.248                   86.751
12.000                   3.0000                   1.5000                   6000.0                   1000.0                   40.000                   79.134                   87.684                   107.84                   110.52                   112.17                   112.97                   79.513                   88.173                   108.53                   111.24                   112.92                   113.76                   79.299                   87.969                   108.66                   111.50                   113.18                   114.02                   78.582                   87.016                   106.95                   109.65                   111.30                   112.12                   78.946                   87.460                   107.52                   110.23                   111.86                   112.66                   79.281                   87.902                   108.35                   111.14                   112.81                   113.64                   78.817                   87.346                   107.46                   110.14                   111.79                   112.62                   76.531                   84.756                   104.31                   106.97                   108.57                   109.37                   73.211                   80.596                   98.203                   100.61                   102.07                   102.82                   71.898                   78.393                   91.721                   93.339                   94.287                   94.790
12.000                   3.0000                   1.5000                   6000.0                   1000.0                   45.000                   88.723                   97.357                   117.79                   120.52                   122.19                   123.01                   89.095                   97.835                   118.45                   121.20                   122.90                   123.75                   88.785                   97.531                   118.49                   121.37                   123.07                   123.91                   87.998                   96.491                   116.62                   119.34                   121.01                   121.84                   88.426                   97.006                   117.28                   120.02                   121.67                   122.47                   88.720                   97.407                   118.12                   120.96                   122.65                   123.49                   88.170                   96.751                   117.05                   119.75                   121.42                   122.25                   85.485                   93.772                   113.55                   116.25                   117.87                   118.67                   81.538                   88.965                   106.75                   109.17                   110.65                   111.40                   79.862                   86.430                   99.840                   101.46                   102.42                   102.92
12.000                   3.0000                   1.5000                   6000.0                   1000.0                   50.000                   98.313                   107.03                   127.75                   130.53                   132.22                   133.04                   98.677                   107.50                   128.38                   131.16                   132.89                   133.74                   98.271                   107.09                   128.31                   131.23                   132.97                   133.81                   97.414                   105.97                   126.28                   129.03                   130.72                   131.55                   97.906                   106.55                   127.04                   129.81                   131.48                   132.29                   98.159                   106.91                   127.89                   130.77                   132.49                   133.34                   97.523                   106.16                   126.64                   129.37                   131.05                   131.89                   94.439                   102.79                   122.79                   125.52                   127.16                   127.97                   89.865                   97.335                   115.29                   117.74                   119.23                   119.99                   87.826                   94.467                   107.96                   109.59                   110.55                   111.06
12.000                   3.0000                   1.5000                   6000.0                   1000.0                   55.000                   107.90                   116.70                   137.71                   140.53                   142.25                   143.08                   108.26                   117.16                   138.30                   141.13                   142.87                   143.73                   107.76                   116.65                   138.14                   141.10                   142.86                   143.71                   106.83                   115.44                   135.95                   138.72                   140.43                   141.27                   107.39                   116.10                   136.81                   139.60                   141.29                   142.11                   107.60                   116.42                   137.66                   140.59                   142.33                   143.18                   106.88                   115.56                   136.23                   138.98                   140.69                   141.52                   103.39                   111.80                   132.03                   134.80                   136.46                   137.27                   98.192                   105.70                   123.84                   126.31                   127.82                   128.58                   95.790                   102.50                   116.08                   117.71                   118.68                   119.19
12.000                   3.0000                   1.5000                   6000.0                   1000.0                   60.000                   117.60                   126.48                   147.72                   150.57                   152.31                   153.14                   117.95                   126.94                   148.33                   151.18                   152.95                   153.82                   117.39                   126.38                   148.14                   151.14                   152.92                   153.77                   116.38                   125.07                   145.80                   148.59                   150.32                   151.17                   116.97                   125.76                   146.70                   149.53                   151.25                   152.07                   117.14                   126.05                   147.53                   150.49                   152.26                   153.12                   116.34                   125.11                   146.03                   148.82                   150.55                   151.40                   112.37                   120.86                   141.29                   144.10                   145.78                   146.59                   106.57                   114.13                   132.40                   134.88                   136.41                   137.18                   103.82                   110.55                   124.16                   125.80                   126.78                   127.28
12.000                   3.0000                   1.5000                   6000.0                   1000.0                   65.000                   127.30                   136.26                   157.72                   160.60                   162.37                   163.20                   127.65                   136.73                   158.35                   161.25                   163.04                   163.91                   127.02                   136.12                   158.15                   161.18                   162.98                   163.85                   125.93                   134.71                   155.65                   158.47                   160.22                   161.08                   126.55                   135.43                   156.61                   159.47                   161.20                   162.04                   126.69                   135.68                   157.40                   160.40                   162.19                   163.05                   125.81                   134.67                   155.85                   158.67                   160.43                   161.28                   121.35                   129.91                   150.55                   153.39                   155.10                   155.91                   114.94                   122.55                   140.96                   143.46                   145.00                   145.77                   111.86                   118.60                   132.24                   133.89                   134.87                   135.38
12.000                   3.0000                   1.5000                   6000.0                   1000.0                   70.000                   137.00                   146.04                   167.73                   170.64                   172.43                   173.27                   137.35                   146.52                   168.38                   171.31                   173.12                   174.00                   136.65                   145.85                   168.15                   171.22                   173.05                   173.92                   135.48                   144.34                   165.51                   168.35                   170.12                   170.99                   136.14                   145.10                   166.51                   169.40                   171.16                   172.01                   136.23                   145.31                   167.28                   170.30                   172.11                   172.99                   135.28                   144.23                   165.66                   168.52                   170.30                   171.16                   130.33                   138.97                   159.82                   162.69                   164.41                   165.23                   123.32                   130.98                   149.52                   152.04                   153.60                   154.37                   119.90                   126.65                   140.32                   141.99                   142.97                   143.47
12.000                   3.0000                   1.5000                   6000.0                   1000.0                   75.000                   146.69                   155.82                   177.73                   180.68                   182.49                   183.33                   147.05                   156.30                   178.40                   181.37                   183.21                   184.09                   146.29                   155.58                   178.16                   181.26                   183.11                   183.99                   145.03                   153.98                   175.36                   178.23                   180.03                   180.89                   145.72                   154.77                   176.42                   179.34                   181.12                   181.98                   145.78                   154.95                   177.15                   180.20                   182.04                   182.92                   144.75                   153.79                   175.47                   178.37                   180.18                   181.05                   139.31                   148.02                   169.08                   171.99                   173.73                   174.55                   131.70                   139.41                   158.08                   160.62                   162.19                   162.97                   127.93                   134.70                   148.40                   150.08                   151.06                   151.57