% Model:              batchmodel_COIL_N_12_COIL_kr_3_COIL_kh_1.5_FUNZ_freq_2000_FUNZ_I_eff_2500.mph
% Version:            COMSOL 6.0.0.318
% Date:               Feb 8 2022, 20:05
% Table:              Tabella 1 - GRIGLIA_T
% COIL_N                 COIL_kr                  COIL_kh                  FUNZ_freq                FUNZ_I_eff               Time (s)                 Temperatura (degC), Point: (0, 0)Temperatura (degC), Point: (15, 0)Temperatura (degC), Point: (25.641, 0)Temperatura (degC), Point: (27.821, 0)Temperatura (degC), Point: (29.128, 0)Temperatura (degC), Point: (29.99, 0)Temperatura (degC), Point: (0, 62.5)Temperatura (degC), Point: (15, 62.5)Temperatura (degC), Point: (25.641, 62.5)Temperatura (degC), Point: (27.821, 62.5)Temperatura (degC), Point: (29.128, 62.5)Temperatura (degC), Point: (29.99, 62.5)Temperatura (degC), Point: (0, 125)Temperatura (degC), Point: (15, 125)Temperatura (degC), Point: (25.641, 125)Temperatura (degC), Point: (27.821, 125)Temperatura (degC), Point: (29.128, 125)Temperatura (degC), Point: (29.99, 125)Temperatura (degC), Point: (0, 187.5)Temperatura (degC), Point: (15, 187.5)Temperatura (degC), Point: (25.641, 187.5)Temperatura (degC), Point: (27.821, 187.5)Temperatura (degC), Point: (29.128, 187.5)Temperatura (degC), Point: (29.99, 187.5)Temperatura (degC), Point: (0, 250)Temperatura (degC), Point: (15, 250)Temperatura (degC), Point: (25.641, 250)Temperatura (degC), Point: (27.821, 250)Temperatura (degC), Point: (29.128, 250)Temperatura (degC), Point: (29.99, 250)Temperatura (degC), Point: (0, 312.5)Temperatura (degC), Point: (15, 312.5)Temperatura (degC), Point: (25.641, 312.5)Temperatura (degC), Point: (27.821, 312.5)Temperatura (degC), Point: (29.128, 312.5)Temperatura (degC), Point: (29.99, 312.5)Temperatura (degC), Point: (0, 375)Temperatura (degC), Point: (15, 375)Temperatura (degC), Point: (25.641, 375)Temperatura (degC), Point: (27.821, 375)Temperatura (degC), Point: (29.128, 375)Temperatura (degC), Point: (29.99, 375)Temperatura (degC), Point: (0, 437.5)Temperatura (degC), Point: (15, 437.5)Temperatura (degC), Point: (25.641, 437.5)Temperatura (degC), Point: (27.821, 437.5)Temperatura (degC), Point: (29.128, 437.5)Temperatura (degC), Point: (29.99, 437.5)Temperatura (degC), Point: (0, 468.75)Temperatura (degC), Point: (15, 468.75)Temperatura (degC), Point: (25.641, 468.75)Temperatura (degC), Point: (27.821, 468.75)Temperatura (degC), Point: (29.128, 468.75)Temperatura (degC), Point: (29.99, 468.75)Temperatura (degC), Point: (0, 492.19)Temperatura (degC), Point: (15, 492.19)Temperatura (degC), Point: (25.641, 492.19)Temperatura (degC), Point: (27.821, 492.19)Temperatura (degC), Point: (29.128, 492.19)Temperatura (degC), Point: (29.99, 492.19)
12.000                   3.0000                   1.5000                   2000.0                   2500.0                   0.0000                   20.000                   20.000                   20.000                   20.000                   20.005                   20.071                   20.000                   20.000                   20.000                   20.000                   20.006                   20.072                   20.000                   20.000                   20.000                   20.000                   20.006                   20.073                   20.000                   20.000                   20.000                   20.000                   20.005                   20.071                   20.000                   20.000                   20.000                   20.000                   20.005                   20.071                   20.000                   20.000                   20.000                   20.000                   20.006                   20.073                   20.000                   20.000                   20.000                   20.000                   20.006                   20.072                   20.000                   20.000                   20.000                   20.000                   20.005                   20.069                   20.000                   20.000                   20.000                   20.000                   20.004                   20.066                   20.000                   20.000                   20.000                   20.000                   20.001                   20.048
12.000                   3.0000                   1.5000                   2000.0                   2500.0                   5.0000                   22.370                   28.699                   52.517                   60.890                   66.297                   68.778                   22.410                   28.940                   54.391                   63.769                   69.719                   72.384                   22.449                   29.057                   54.515                   63.657                   69.278                   71.843                   22.375                   28.779                   53.772                   62.933                   68.557                   70.996                   22.368                   28.746                   53.514                   62.753                   68.719                   71.279                   22.437                   29.062                   54.983                   64.492                   70.258                   72.729                   22.416                   28.926                   54.613                   64.429                   70.459                   73.009                   22.322                   28.573                   52.644                   61.159                   66.549                   69.086                   22.197                   28.111                   50.813                   58.790                   63.448                   65.612                   23.223                   28.825                   46.258                   52.248                   55.593                   57.176
12.000                   3.0000                   1.5000                   2000.0                   2500.0                   10.000                   34.188                   47.070                   78.201                   87.497                   93.518                   96.187                   34.509                   47.998                   81.209                   91.066                   97.399                   100.14                   34.612                   48.063                   80.888                   90.654                   96.825                   99.533                   34.241                   47.391                   79.863                   89.713                   95.879                   98.538                   34.128                   47.170                   79.344                   89.084                   95.356                   98.039                   34.497                   47.957                   81.112                   91.050                   97.276                   99.978                   34.487                   47.900                   81.219                   91.441                   97.924                   100.61                   33.861                   46.641                   77.981                   87.312                   93.255                   95.875                   32.870                   44.571                   72.890                   81.128                   86.238                   88.526                   33.684                   43.878                   65.460                   71.331                   74.874                   76.559
12.000                   3.0000                   1.5000                   2000.0                   2500.0                   15.000                   51.436                   68.505                   105.12                   115.64                   122.35                   125.23                   52.082                   69.865                   108.29                   119.34                   126.08                   128.99                   52.299                   70.130                   108.66                   119.74                   126.75                   129.74                   51.518                   68.871                   106.33                   117.03                   123.70                   126.61                   51.207                   68.377                   105.47                   116.15                   122.72                   125.62                   51.983                   69.732                   108.40                   119.67                   126.62                   129.60                   52.006                   69.667                   107.84                   118.83                   125.42                   128.40                   50.629                   67.519                   104.02                   114.49                   120.89                   123.69                   48.388                   64.020                   98.832                   109.16                   115.54                   118.26                   48.448                   61.637                   86.451                   92.871                   96.494                   98.163
12.000                   3.0000                   1.5000                   2000.0                   2500.0                   20.000                   72.582                   92.210                   132.73                   144.04                   151.03                   153.94                   73.585                   94.012                   136.62                   148.53                   155.55                   158.48                   74.105                   94.884                   138.69                   151.09                   158.65                   161.76                   72.844                   93.005                   135.69                   147.98                   155.22                   158.28                   72.147                   91.903                   133.26                   145.04                   151.97                   154.89                   73.479                   94.051                   137.65                   150.03                   157.32                   160.39                   73.597                   94.054                   137.14                   149.50                   156.62                   159.68                   71.466                   91.257                   133.12                   144.96                   152.02                   155.04                   67.780                   86.195                   125.71                   136.66                   142.93                   145.60                   67.548                   83.213                   111.06                   117.94                   121.52                   123.21
12.000                   3.0000                   1.5000                   2000.0                   2500.0                   25.000                   96.031                   117.24                   160.32                   172.17                   179.45                   182.40                   97.449                   119.60                   165.15                   177.69                   184.97                   187.91                   98.591                   121.45                   169.15                   182.49                   190.46                   193.64                   96.737                   118.74                   164.56                   177.51                   184.84                   187.90                   95.408                   116.77                   160.76                   173.12                   180.33                   183.27                   97.623                   120.20                   167.44                   180.60                   188.16                   191.32                   97.802                   120.12                   166.33                   179.32                   186.75                   189.82                   95.157                   117.11                   163.08                   175.92                   183.54                   186.70                   89.633                   109.65                   151.55                   162.78                   169.11                   171.82                   88.867                   105.74                   134.83                   141.78                   145.26                   146.92
12.000                   3.0000                   1.5000                   2000.0                   2500.0                   30.000                   120.09                   142.67                   188.09                   200.50                   208.11                   211.10                   121.99                   145.69                   194.02                   207.22                   214.85                   217.83                   123.80                   148.51                   199.67                   213.88                   222.25                   225.48                   121.32                   144.93                   193.42                   206.92                   214.37                   217.45                   119.30                   142.05                   188.38                   201.29                   208.80                   211.77                   122.57                   146.99                   197.69                   211.69                   219.63                   222.90                   122.68                   146.59                   195.46                   208.99                   216.74                   219.84                   119.50                   143.27                   192.58                   206.24                   214.35                   217.61                   112.06                   133.39                   177.20                   188.67                   195.07                   197.80                   110.63                   128.44                   158.61                   165.67                   169.12                   170.77
12.000                   3.0000                   1.5000                   2000.0                   2500.0                   35.000                   144.80                   168.55                   216.05                   229.02                   237.01                   240.07                   147.24                   172.32                   223.25                   237.14                   245.21                   248.28                   149.78                   176.08                   230.26                   245.27                   254.02                   257.28                   146.64                   171.61                   222.27                   236.19                   243.80                   246.92                   143.86                   167.79                   216.13                   229.55                   237.39                   240.40                   148.38                   174.47                   228.46                   243.32                   251.77                   255.16                   148.27                   173.51                   224.54                   238.51                   246.59                   249.74                   144.53                   169.76                   221.56                   235.87                   244.39                   247.70                   135.12                   157.44                   202.66                   214.30                   220.79                   223.54                   132.87                   151.33                   182.40                   189.62                   193.11                   194.78
12.000                   3.0000                   1.5000                   2000.0                   2500.0                   40.000                   169.92                   194.52                   243.74                   257.21                   265.52                   268.62                   173.14                   199.29                   252.45                   266.99                   275.50                   278.67                   176.35                   203.81                   260.26                   275.89                   285.01                   288.29                   172.57                   198.54                   251.06                   265.37                   273.18                   276.37                   168.98                   193.77                   243.70                   257.54                   265.67                   268.73                   175.01                   202.34                   258.88                   274.52                   283.44                   286.92                   174.51                   200.73                   253.63                   268.11                   276.56                   279.76                   169.83                   195.99                   249.44                   264.20                   273.01                   276.33                   158.42                   181.34                   227.60                   239.48                   246.08                   248.85                   155.05                   173.84                   205.53                   212.90                   216.47                   218.15
12.000                   3.0000                   1.5000                   2000.0                   2500.0                   45.000                   195.12                   220.51                   271.37                   285.33                   293.95                   297.10                   199.15                   226.32                   281.64                   296.83                   305.78                   309.05                   203.03                   231.55                   290.16                   306.38                   315.86                   319.16                   198.61                   225.52                   279.83                   294.52                   302.56                   305.82                   194.20                   219.78                   271.24                   285.48                   293.89                   297.00                   201.78                   230.29                   289.24                   305.64                   315.04                   318.60                   200.86                   228.00                   282.73                   297.73                   306.55                   309.81                   195.18                   222.17                   277.12                   292.29                   301.37                   304.70                   181.76                   205.22                   252.46                   264.57                   271.31                   274.09                   177.23                   196.28                   228.55                   236.07                   239.73                   241.41
12.000                   3.0000                   1.5000                   2000.0                   2500.0                   50.000                   220.33                   246.49                   299.01                   313.45                   322.38                   325.58                   225.16                   253.36                   310.84                   326.66                   336.06                   339.44                   229.70                   259.30                   320.06                   336.87                   346.71                   350.02                   224.65                   252.50                   308.60                   323.68                   331.94                   335.26                   219.42                   245.80                   298.78                   313.42                   322.11                   325.27                   228.56                   258.23                   319.60                   336.76                   346.63                   350.27                   227.20                   255.28                   311.83                   327.36                   336.54                   339.86                   220.53                   248.35                   304.79                   320.37                   329.73                   333.06                   205.10                   229.09                   277.31                   289.67                   296.53                   299.33                   199.41                   218.72                   251.56                   259.24                   262.99                   264.67
12.000                   3.0000                   1.5000                   2000.0                   2500.0                   55.000                   245.52                   272.45                   326.66                   341.60                   350.83                   354.07                   251.03                   280.07                   339.35                   355.69                   365.43                   368.87                   256.08                   286.50                   348.92                   366.21                   376.37                   379.68                   250.56                   279.24                   337.09                   352.61                   361.14                   364.51                   244.58                   271.69                   326.25                   341.34                   350.35                   353.55                   255.11                   285.68                   348.87                   366.58                   376.84                   380.52                   253.50                   282.43                   340.96                   357.16                   366.80                   370.18                   245.37                   273.75                   331.20                   347.02                   356.55                   359.85                   228.02                   252.35                   301.33                   313.94                   320.96                   323.76                   221.30                   240.81                   274.10                   281.88                   285.72                   287.40
12.000                   3.0000                   1.5000                   2000.0                   2500.0                   60.000                   270.72                   298.38                   354.31                   369.77                   379.30                   382.57                   276.79                   306.56                   367.37                   384.11                   394.13                   397.60                   282.25                   313.29                   377.03                   394.71                   405.17                   408.46                   276.38                   305.81                   365.39                   381.38                   390.21                   393.63                   269.71                   297.49                   353.68                   369.26                   378.59                   381.84                   281.50                   312.76                   377.35                   395.47                   406.04                   409.74                   279.74                   309.51                   370.13                   387.09                   397.25                   400.69                   269.84                   298.58                   356.68                   372.62                   382.26                   385.50                   250.62                   275.16                   324.73                   337.63                   344.82                   347.59                   242.97                   262.64                   296.30                   304.14                   308.06                   309.74
12.000                   3.0000                   1.5000                   2000.0                   2500.0                   65.000                   295.91                   324.31                   381.97                   397.94                   407.76                   411.08                   302.56                   333.05                   395.38                   412.54                   422.83                   426.33                   308.42                   340.09                   405.14                   423.22                   433.97                   437.24                   302.20                   332.37                   393.68                   410.16                   419.27                   422.74                   294.84                   323.30                   381.11                   397.17                   406.83                   410.12                   307.89                   339.85                   405.83                   424.35                   435.25                   438.95                   305.99                   336.58                   399.29                   417.01                   427.70                   431.20                   294.31                   323.41                   382.16                   398.22                   407.96                   411.15                   273.22                   297.97                   348.14                   361.31                   368.67                   371.43                   264.65                   284.48                   318.50                   326.40                   330.41                   332.07
12.000                   3.0000                   1.5000                   2000.0                   2500.0                   70.000                   320.92                   350.06                   409.49                   426.00                   436.14                   439.49                   328.05                   359.23                   423.07                   440.68                   451.25                   454.77                   334.23                   366.47                   432.74                   451.18                   462.17                   465.43                   327.73                   358.59                   421.58                   438.54                   447.95                   451.45                   319.80                   348.97                   408.51                   425.10                   435.11                   438.44                   333.90                   366.50                   433.78                   452.68                   463.86                   467.56                   331.90                   363.26                   428.00                   446.46                   457.63                   461.17                   318.34                   347.76                   407.13                   423.31                   433.14                   436.26                   295.45                   320.38                   371.07                   384.48                   391.98                   394.71                   286.05                   306.03                   340.41                   348.37                   352.46                   354.11
12.000                   3.0000                   1.5000                   2000.0                   2500.0                   75.000                   345.54                   375.43                   436.71                   453.82                   464.31                   467.71                   352.94                   384.74                   450.05                   468.16                   479.04                   482.56                   359.22                   391.92                   459.21                   477.92                   489.04                   492.31                   352.58                   384.06                   448.58                   466.03                   475.74                   479.26                   344.41                   374.32                   435.85                   453.08                   463.44                   466.83                   359.08                   392.16                   460.57                   479.75                   491.14                   494.83                   357.06                   389.09                   455.69                   474.82                   486.36                   489.94                   341.39                   371.03                   430.93                   447.27                   457.13                   460.20                   316.84                   341.90                   392.93                   406.48                   414.08                   416.76                   306.82                   326.95                   361.67                   369.70                   373.86                   375.47