% Model:              batchmodel_COIL_N_12_COIL_kr_3_COIL_kh_1.5_FUNZ_freq_10000_FUNZ_I_eff_4000.mph
% Version:            COMSOL 6.0.0.318
% Date:               Feb 8 2022, 20:45
% Table:              Tabella 1 - GRIGLIA_T
% COIL_N                 COIL_kr                  COIL_kh                  FUNZ_freq                FUNZ_I_eff               Time (s)                 Temperatura (degC), Point: (0, 0)Temperatura (degC), Point: (15, 0)Temperatura (degC), Point: (28.051, 0)Temperatura (degC), Point: (29.025, 0)Temperatura (degC), Point: (29.61, 0)Temperatura (degC), Point: (29.99, 0)Temperatura (degC), Point: (0, 62.5)Temperatura (degC), Point: (15, 62.5)Temperatura (degC), Point: (28.051, 62.5)Temperatura (degC), Point: (29.025, 62.5)Temperatura (degC), Point: (29.61, 62.5)Temperatura (degC), Point: (29.99, 62.5)Temperatura (degC), Point: (0, 125)Temperatura (degC), Point: (15, 125)Temperatura (degC), Point: (28.051, 125)Temperatura (degC), Point: (29.025, 125)Temperatura (degC), Point: (29.61, 125)Temperatura (degC), Point: (29.99, 125)Temperatura (degC), Point: (0, 187.5)Temperatura (degC), Point: (15, 187.5)Temperatura (degC), Point: (28.051, 187.5)Temperatura (degC), Point: (29.025, 187.5)Temperatura (degC), Point: (29.61, 187.5)Temperatura (degC), Point: (29.99, 187.5)Temperatura (degC), Point: (0, 250)Temperatura (degC), Point: (15, 250)Temperatura (degC), Point: (28.051, 250)Temperatura (degC), Point: (29.025, 250)Temperatura (degC), Point: (29.61, 250)Temperatura (degC), Point: (29.99, 250)Temperatura (degC), Point: (0, 312.5)Temperatura (degC), Point: (15, 312.5)Temperatura (degC), Point: (28.051, 312.5)Temperatura (degC), Point: (29.025, 312.5)Temperatura (degC), Point: (29.61, 312.5)Temperatura (degC), Point: (29.99, 312.5)Temperatura (degC), Point: (0, 375)Temperatura (degC), Point: (15, 375)Temperatura (degC), Point: (28.051, 375)Temperatura (degC), Point: (29.025, 375)Temperatura (degC), Point: (29.61, 375)Temperatura (degC), Point: (29.99, 375)Temperatura (degC), Point: (0, 437.5)Temperatura (degC), Point: (15, 437.5)Temperatura (degC), Point: (28.051, 437.5)Temperatura (degC), Point: (29.025, 437.5)Temperatura (degC), Point: (29.61, 437.5)Temperatura (degC), Point: (29.99, 437.5)Temperatura (degC), Point: (0, 468.75)Temperatura (degC), Point: (15, 468.75)Temperatura (degC), Point: (28.051, 468.75)Temperatura (degC), Point: (29.025, 468.75)Temperatura (degC), Point: (29.61, 468.75)Temperatura (degC), Point: (29.99, 468.75)Temperatura (degC), Point: (0, 492.19)Temperatura (degC), Point: (15, 492.19)Temperatura (degC), Point: (28.051, 492.19)Temperatura (degC), Point: (29.025, 492.19)Temperatura (degC), Point: (29.61, 492.19)Temperatura (degC), Point: (29.99, 492.19)
12.000                   3.0000                   1.5000                   10000                    4000.0                   0.0000                   20.000                   20.000                   20.000                   20.000                   20.111                   20.522                   20.000                   20.000                   20.000                   20.000                   20.117                   20.539                   20.000                   20.000                   20.000                   20.000                   20.119                   20.548                   20.000                   20.000                   20.000                   20.000                   20.113                   20.526                   20.000                   20.000                   20.000                   20.000                   20.114                   20.529                   20.000                   20.000                   20.000                   20.000                   20.119                   20.549                   20.000                   20.000                   20.000                   20.000                   20.116                   20.535                   20.000                   20.000                   20.000                   20.000                   20.109                   20.516                   20.000                   20.000                   20.000                   20.000                   20.112                   20.523                   20.000                   20.000                   20.000                   20.000                   20.102                   20.506
12.000                   3.0000                   1.5000                   10000                    4000.0                   5.0000                   28.223                   59.176                   247.29                   275.65                   292.85                   298.75                   28.604                   61.341                   259.33                   289.08                   306.96                   313.14                   28.619                   61.568                   263.02                   293.44                   311.75                   317.93                   28.409                   60.362                   254.49                   283.91                   301.71                   307.73                   28.406                   60.288                   251.60                   280.49                   298.21                   304.32                   28.761                   62.134                   262.84                   293.29                   312.06                   318.33                   28.457                   60.594                   256.24                   286.07                   304.49                   310.80                   28.063                   58.797                   245.67                   273.85                   291.00                   296.96                   28.132                   58.939                   242.52                   269.86                   286.34                   292.23                   32.610                   64.925                   236.08                   260.06                   274.76                   280.05
12.000                   3.0000                   1.5000                   10000                    4000.0                   10.000                   82.714                   155.74                   442.91                   483.88                   507.82                   514.97                   84.998                   160.78                   456.97                   499.05                   523.66                   530.95                   85.261                   162.03                   466.89                   509.99                   534.95                   542.35                   84.156                   159.02                   451.31                   492.44                   516.37                   523.52                   83.833                   158.31                   450.03                   491.62                   516.06                   523.26                   85.664                   162.46                   466.22                   509.74                   534.84                   542.25                   84.092                   158.93                   453.00                   494.70                   518.64                   525.83                   82.047                   154.36                   434.21                   473.40                   496.44                   503.40                   81.505                   151.98                   422.13                   460.11                   482.62                   489.42                   92.733                   162.39                   401.95                   432.53                   450.62                   456.27
12.000                   3.0000                   1.5000                   10000                    4000.0                   15.000                   168.40                   266.01                   625.31                   675.63                   704.88                   713.50                   171.99                   271.44                   628.74                   677.85                   707.25                   715.67                   172.55                   273.02                   635.39                   683.54                   712.06                   720.32                   170.46                   268.35                   617.12                   664.63                   693.22                   701.62                   170.05                   268.29                   622.37                   670.75                   699.14                   707.16                   173.07                   273.97                   646.63                   699.97                   730.50                   739.20                   169.99                   267.77                   614.84                   662.96                   688.63                   696.12                   166.29                   261.72                   602.44                   647.95                   674.91                   682.95                   164.20                   256.91                   591.27                   637.68                   665.29                   673.16                   173.92                   263.14                   544.84                   580.11                   601.21                   607.41
12.000                   3.0000                   1.5000                   10000                    4000.0                   20.000                   262.96                   373.57                   786.67                   858.48                   895.09                   903.94                   266.76                   378.34                   792.74                   865.64                   902.59                   911.58                   267.37                   379.68                   801.74                   876.44                   913.79                   922.80                   264.49                   374.01                   774.18                   843.29                   879.49                   888.44                   264.42                   374.89                   784.63                   856.16                   892.77                   901.68                   268.09                   381.33                   814.30                   891.05                   928.89                   937.83                   263.75                   373.39                   777.05                   847.51                   884.42                   893.46                   259.00                   366.78                   758.77                   824.77                   860.21                   869.05                   255.08                   359.64                   735.03                   795.13                   828.31                   836.85                   262.66                   361.53                   671.88                   712.93                   736.20                   742.59
12.000                   3.0000                   1.5000                   10000                    4000.0                   25.000                   355.05                   472.43                   979.95                   1053.4                   1077.8                   1081.6                   358.65                   476.49                   915.93                   973.96                   1000.8                   1006.6                   359.27                   478.47                   949.29                   1005.9                   1028.7                   1032.9                   355.74                   471.57                   922.76                   989.27                   1019.2                   1025.5                   356.21                   473.52                   946.06                   1015.2                   1043.3                   1048.7                   360.16                   480.71                   1060.8                   1118.0                   1132.6                   1133.6                   354.99                   471.38                   918.42                   981.69                   1010.6                   1016.8                   349.47                   463.98                   912.55                   981.69                   1013.1                   1019.8                   343.67                   454.46                   880.23                   949.61                   982.34                   989.68                   347.99                   450.94                   764.03                   809.14                   834.01                   840.33
12.000                   3.0000                   1.5000                   10000                    4000.0                   30.000                   438.96                   559.63                   1103.9                   1134.6                   1141.6                   1141.1                   442.00                   559.16                   937.97                   974.36                   991.63                   995.34                   443.08                   564.50                   1018.4                   1054.5                   1065.7                   1066.8                   438.77                   555.86                   1038.0                   1081.6                   1093.7                   1094.6                   439.79                   559.04                   1086.0                   1121.2                   1129.7                   1129.6                   444.19                   568.89                   1111.8                   1138.3                   1144.0                   1143.3                   438.16                   554.29                   945.28                   986.14                   1005.4                   1009.5                   432.27                   547.91                   943.77                   983.24                   1001.6                   1005.5                   424.84                   537.36                   944.03                   988.73                   1009.3                   1013.6                   424.52                   526.64                   841.75                   885.49                   908.12                   913.53
12.000                   3.0000                   1.5000                   10000                    4000.0                   35.000                   511.72                   629.55                   1098.8                   1120.5                   1125.2                   1124.4                   513.70                   624.24                   953.28                   978.50                   990.45                   992.89                   515.59                   632.45                   1059.9                   1085.5                   1092.3                   1092.2                   510.57                   624.13                   1074.5                   1101.1                   1107.6                   1107.3                   512.04                   628.11                   1102.7                   1125.1                   1129.9                   1129.1                   517.03                   638.25                   1113.1                   1131.7                   1135.3                   1134.3                   509.73                   618.92                   957.65                   988.50                   1003.4                   1006.4                   504.04                   614.02                   949.51                   977.90                   991.59                   994.47                   495.71                   605.86                   983.70                   1015.8                   1028.8                   1030.9                   491.06                   589.60                   903.57                   942.14                   961.48                   965.84
12.000                   3.0000                   1.5000                   10000                    4000.0                   40.000                   571.63                   681.24                   1092.8                   1110.5                   1114.2                   1113.3                   572.77                   674.61                   981.42                   1001.5                   1010.2                   1011.6                   575.13                   684.03                   1079.2                   1098.3                   1102.8                   1102.1                   570.04                   676.36                   1081.6                   1101.8                   1106.4                   1105.8                   571.66                   680.52                   1102.1                   1119.4                   1122.8                   1121.8                   576.76                   690.08                   1108.8                   1123.4                   1125.9                   1124.7                   568.78                   668.72                   974.62                   998.35                   1009.4                   1011.5                   563.65                   664.76                   970.16                   992.71                   1003.2                   1005.2                   555.68                   660.38                   1021.2                   1044.6                   1052.3                   1052.8                   547.60                   640.04                   932.88                   962.63                   977.49                   980.72
12.000                   3.0000                   1.5000                   10000                    4000.0                   45.000                   621.78                   722.70                   1085.7                   1100.4                   1103.4                   1102.4                   622.43                   716.39                   1015.7                   1032.7                   1038.8                   1039.1                   624.96                   726.18                   1086.7                   1101.3                   1104.3                   1103.3                   620.15                   718.88                   1081.8                   1097.7                   1101.2                   1100.3                   621.75                   722.97                   1097.0                   1110.9                   1113.5                   1112.3                   626.66                   732.23                   1103.1                   1114.9                   1116.8                   1115.5                   618.58                   710.04                   998.54                   1017.3                   1025.1                   1026.1                   614.06                   706.57                   995.28                   1013.9                   1021.6                   1022.7                   607.19                   706.01                   1053.9                   1071.5                   1076.0                   1075.5                   596.66                   682.57                   957.43                   981.04                   992.66                   995.02
12.000                   3.0000                   1.5000                   10000                    4000.0                   50.000                   663.05                   758.32                   1080.6                   1092.8                   1095.2                   1094.1                   663.50                   752.99                   1049.4                   1063.8                   1067.6                   1067.0                   665.98                   762.83                   1088.3                   1099.7                   1101.8                   1100.6                   661.61                   755.16                   1079.5                   1092.3                   1094.9                   1093.8                   663.08                   759.21                   1090.6                   1102.1                   1104.1                   1102.9                   667.60                   768.93                   1098.0                   1107.8                   1109.2                   1107.8                   659.93                   745.96                   1028.9                   1044.5                   1049.5                   1049.5                   655.97                   742.34                   1023.4                   1039.2                   1044.6                   1044.7                   650.50                   744.92                   1072.0                   1085.2                   1087.9                   1086.9                   638.66                   719.28                   994.13                   1013.4                   1021.7                   1022.9
12.000                   3.0000                   1.5000                   10000                    4000.0                   55.000                   695.97                   792.37                   1081.2                   1091.2                   1092.9                   1091.7                   696.37                   788.58                   1071.1                   1082.1                   1084.2                   1083.2                   698.55                   798.04                   1089.9                   1099.0                   1100.4                   1099.0                   694.83                   789.44                   1080.7                   1090.9                   1092.7                   1091.6                   696.08                   793.44                   1087.7                   1097.2                   1098.7                   1097.4                   699.95                   803.78                   1096.2                   1104.5                   1105.4                   1104.0                   693.26                   780.78                   1058.3                   1070.7                   1073.7                   1072.9                   689.83                   776.23                   1051.1                   1064.1                   1067.5                   1066.8                   685.82                   780.53                   1079.8                   1090.1                   1091.9                   1090.7                   674.07                   753.93                   1049.1                   1064.3                   1068.4                   1067.9
12.000                   3.0000                   1.5000                   10000                    4000.0                   60.000                   721.43                   826.29                   1085.4                   1093.4                   1094.5                   1093.2                   721.72                   824.97                   1084.6                   1092.8                   1094.0                   1092.6                   723.46                   833.08                   1094.0                   1101.3                   1102.0                   1100.5                   720.49                   823.96                   1085.1                   1093.3                   1094.4                   1093.1                   721.47                   827.56                   1089.3                   1097.0                   1097.9                   1096.6                   724.57                   837.85                   1097.9                   1104.7                   1105.2                   1103.7                   719.19                   817.21                   1077.2                   1086.4                   1088.0                   1086.7                   716.33                   811.40                   1070.3                   1080.2                   1082.1                   1081.0                   713.64                   815.71                   1085.5                   1093.8                   1094.9                   1093.6                   703.47                   791.80                   1086.3                   1096.3                   1097.8                   1096.5
12.000                   3.0000                   1.5000                   10000                    4000.0                   65.000                   742.03                   859.35                   1091.1                   1097.5                   1098.0                   1096.5                   742.47                   860.39                   1094.1                   1100.3                   1100.7                   1099.2                   744.28                   866.79                   1099.5                   1105.3                   1105.5                   1103.9                   741.12                   857.76                   1091.3                   1097.7                   1098.2                   1096.7                   742.07                   860.65                   1093.7                   1099.9                   1100.3                   1098.8                   745.44                   870.46                   1101.9                   1107.4                   1107.5                   1105.8                   740.00                   853.45                   1089.5                   1096.3                   1096.9                   1095.4                   737.15                   846.62                   1083.0                   1090.4                   1091.3                   1090.0                   735.17                   849.54                   1090.8                   1097.5                   1098.1                   1096.6                   726.76                   834.18                   1109.8                   1115.9                   1116.0                   1114.4
12.000                   3.0000                   1.5000                   10000                    4000.0                   70.000                   771.23                   890.33                   1097.3                   1102.4                   1102.5                   1100.9                   772.82                   892.68                   1101.1                   1106.0                   1106.0                   1104.3                   775.12                   897.96                   1105.6                   1110.2                   1109.9                   1108.3                   770.50                   889.34                   1097.7                   1102.8                   1102.9                   1101.3                   771.69                   891.72                   1099.6                   1104.6                   1104.5                   1102.9                   776.52                   900.86                   1107.3                   1111.7                   1111.4                   1109.7                   769.51                   886.65                   1097.4                   1102.7                   1102.8                   1101.2                   764.79                   879.21                   1091.0                   1096.8                   1097.2                   1095.7                   762.30                   880.89                   1096.4                   1101.8                   1102.0                   1100.4                   755.15                   876.49                   1122.9                   1127.2                   1126.7                   1124.9
12.000                   3.0000                   1.5000                   10000                    4000.0                   75.000                   800.42                   921.31                   1103.5                   1107.3                   1106.9                   1105.2                   803.17                   924.96                   1108.2                   1111.8                   1111.2                   1109.5                   805.95                   929.13                   1111.7                   1115.0                   1114.4                   1112.6                   799.88                   920.91                   1104.2                   1108.0                   1107.6                   1105.8                   801.31                   922.79                   1105.5                   1109.2                   1108.8                   1107.0                   807.59                   931.26                   1112.8                   1116.1                   1115.4                   1113.6                   799.01                   919.85                   1105.3                   1109.1                   1108.7                   1106.9                   792.42                   911.80                   1098.9                   1103.2                   1103.0                   1101.3                   789.42                   912.24                   1102.0                   1106.2                   1105.9                   1104.2                   783.54                   918.81                   1135.9                   1138.5                   1137.5                   1135.5