% Model:              batchmodel_COIL_N_12_COIL_kr_2.25_COIL_kh_2_FUNZ_freq_2000_FUNZ_I_eff_2500.mph
% Version:            COMSOL 6.0.0.318
% Date:               Feb 8 2022, 19:29
% Table:              Tabella 1 - GRIGLIA_T
% COIL_N                 COIL_kr                  COIL_kh                  FUNZ_freq                FUNZ_I_eff               Time (s)                 Temperatura (degC), Point: (0, 0)Temperatura (degC), Point: (15, 0)Temperatura (degC), Point: (25.641, 0)Temperatura (degC), Point: (27.821, 0)Temperatura (degC), Point: (29.128, 0)Temperatura (degC), Point: (29.99, 0)Temperatura (degC), Point: (0, 62.5)Temperatura (degC), Point: (15, 62.5)Temperatura (degC), Point: (25.641, 62.5)Temperatura (degC), Point: (27.821, 62.5)Temperatura (degC), Point: (29.128, 62.5)Temperatura (degC), Point: (29.99, 62.5)Temperatura (degC), Point: (0, 125)Temperatura (degC), Point: (15, 125)Temperatura (degC), Point: (25.641, 125)Temperatura (degC), Point: (27.821, 125)Temperatura (degC), Point: (29.128, 125)Temperatura (degC), Point: (29.99, 125)Temperatura (degC), Point: (0, 187.5)Temperatura (degC), Point: (15, 187.5)Temperatura (degC), Point: (25.641, 187.5)Temperatura (degC), Point: (27.821, 187.5)Temperatura (degC), Point: (29.128, 187.5)Temperatura (degC), Point: (29.99, 187.5)Temperatura (degC), Point: (0, 250)Temperatura (degC), Point: (15, 250)Temperatura (degC), Point: (25.641, 250)Temperatura (degC), Point: (27.821, 250)Temperatura (degC), Point: (29.128, 250)Temperatura (degC), Point: (29.99, 250)Temperatura (degC), Point: (0, 312.5)Temperatura (degC), Point: (15, 312.5)Temperatura (degC), Point: (25.641, 312.5)Temperatura (degC), Point: (27.821, 312.5)Temperatura (degC), Point: (29.128, 312.5)Temperatura (degC), Point: (29.99, 312.5)Temperatura (degC), Point: (0, 375)Temperatura (degC), Point: (15, 375)Temperatura (degC), Point: (25.641, 375)Temperatura (degC), Point: (27.821, 375)Temperatura (degC), Point: (29.128, 375)Temperatura (degC), Point: (29.99, 375)Temperatura (degC), Point: (0, 437.5)Temperatura (degC), Point: (15, 437.5)Temperatura (degC), Point: (25.641, 437.5)Temperatura (degC), Point: (27.821, 437.5)Temperatura (degC), Point: (29.128, 437.5)Temperatura (degC), Point: (29.99, 437.5)Temperatura (degC), Point: (0, 468.75)Temperatura (degC), Point: (15, 468.75)Temperatura (degC), Point: (25.641, 468.75)Temperatura (degC), Point: (27.821, 468.75)Temperatura (degC), Point: (29.128, 468.75)Temperatura (degC), Point: (29.99, 468.75)Temperatura (degC), Point: (0, 492.19)Temperatura (degC), Point: (15, 492.19)Temperatura (degC), Point: (25.641, 492.19)Temperatura (degC), Point: (27.821, 492.19)Temperatura (degC), Point: (29.128, 492.19)Temperatura (degC), Point: (29.99, 492.19)
12.000                   2.2500                   2.0000                   2000.0                   2500.0                   0.0000                   20.000                   20.000                   20.000                   20.000                   20.005                   20.070                   20.000                   20.000                   20.000                   20.000                   20.006                   20.075                   20.000                   20.000                   20.000                   20.000                   20.007                   20.078                   20.000                   20.000                   20.000                   20.000                   20.006                   20.072                   20.000                   20.000                   20.000                   20.000                   20.006                   20.072                   20.000                   20.000                   20.000                   20.000                   20.007                   20.078                   20.000                   20.000                   20.000                   20.000                   20.006                   20.075                   20.000                   20.000                   20.000                   20.000                   20.005                   20.070                   20.000                   20.000                   20.000                   20.000                   20.006                   20.074                   20.000                   20.000                   20.000                   20.000                   20.002                   20.055
12.000                   2.2500                   2.0000                   2000.0                   2500.0                   5.0000                   21.981                   28.108                   53.656                   62.837                   68.685                   71.356                   22.044                   28.405                   55.187                   64.885                   70.596                   73.160                   22.114                   28.791                   57.800                   68.597                   75.342                   78.388                   21.997                   28.173                   53.995                   63.370                   69.431                   72.309                   21.976                   28.080                   53.584                   62.807                   68.693                   71.393                   22.104                   28.723                   57.171                   67.745                   74.590                   77.656                   22.049                   28.434                   55.557                   65.576                   72.102                   75.112                   21.943                   27.924                   52.680                   61.475                   66.761                   69.227                   21.924                   27.950                   53.734                   63.385                   69.508                   72.172                   22.436                   28.030                   47.060                   53.605                   57.786                   59.561
12.000                   2.2500                   2.0000                   2000.0                   2500.0                   10.000                   33.922                   47.349                   80.297                   90.086                   96.361                   99.105                   34.395                   48.479                   83.444                   93.936                   100.59                   103.50                   34.899                   49.708                   86.868                   98.081                   105.22                   108.27                   34.078                   47.698                   81.264                   91.306                   97.756                   100.61                   33.905                   47.354                   80.534                   90.487                   96.861                   99.656                   34.791                   49.467                   86.236                   97.335                   104.42                   107.46                   34.473                   48.697                   84.230                   94.972                   101.89                   104.86                   33.503                   46.453                   78.123                   87.532                   93.523                   96.186                   33.266                   46.322                   79.190                   89.210                   95.662                   98.467                   33.459                   44.539                   68.717                   75.517                   79.839                   81.763
12.000                   2.2500                   2.0000                   2000.0                   2500.0                   15.000                   51.629                   69.379                   106.76                   117.33                   123.99                   126.82                   52.578                   71.123                   110.43                   121.66                   128.83                   131.85                   53.553                   72.894                   113.99                   125.54                   132.76                   135.81                   51.914                   69.831                   107.45                   118.07                   124.90                   127.73                   51.604                   69.415                   107.15                   117.88                   124.64                   127.50                   53.232                   72.352                   112.88                   124.26                   131.41                   134.36                   52.682                   71.294                   110.51                   121.46                   128.25                   131.03                   50.811                   68.267                   106.16                   117.46                   124.73                   127.74                   49.801                   66.822                   103.30                   113.78                   120.35                   123.21                   49.171                   63.458                   90.578                   97.708                   102.00                   104.11
12.000                   2.2500                   2.0000                   2000.0                   2500.0                   20.000                   73.793                   93.557                   134.20                   145.52                   152.44                   155.32                   75.212                   95.821                   138.61                   150.88                   158.43                   161.43                   76.571                   97.967                   142.72                   155.20                   162.81                   165.91                   74.144                   93.992                   134.70                   146.15                   153.35                   156.26                   73.756                   93.584                   134.57                   146.14                   153.23                   156.12                   75.749                   96.727                   140.53                   152.88                   160.35                   163.27                   75.214                   95.749                   137.99                   149.60                   156.43                   159.17                   72.661                   92.315                   133.58                   145.44                   152.75                   155.75                   70.342                   89.178                   128.65                   139.96                   146.82                   149.75                   69.504                   85.639                   115.25                   122.95                   127.42                   129.53
12.000                   2.2500                   2.0000                   2000.0                   2500.0                   25.000                   97.126                   118.37                   161.43                   173.25                   180.42                   183.32                   99.114                   121.41                   167.35                   180.53                   188.45                   191.45                   100.83                   123.95                   171.88                   185.15                   193.15                   196.32                   97.651                   119.06                   162.48                   174.59                   182.13                   185.12                   97.117                   118.49                   162.07                   174.25                   181.62                   184.54                   99.440                   122.07                   169.31                   182.71                   190.73                   193.72                   99.022                   121.20                   166.47                   178.81                   186.00                   188.85                   95.681                   116.90                   160.48                   172.68                   180.09                   183.10                   92.034                   112.26                   154.23                   166.21                   173.38                   176.36                   90.968                   108.31                   139.69                   147.78                   152.44                   154.57
12.000                   2.2500                   2.0000                   2000.0                   2500.0                   30.000                   121.41                   143.84                   188.97                   201.27                   208.72                   211.66                   123.93                   147.62                   196.32                   210.28                   218.56                   221.59                   126.03                   150.60                   201.30                   215.26                   223.64                   226.89                   122.16                   144.86                   190.68                   203.37                   211.23                   214.29                   121.40                   144.01                   189.81                   202.51                   210.15                   213.11                   124.09                   148.20                   198.64                   213.03                   221.65                   224.75                   123.80                   147.39                   195.48                   208.54                   216.16                   219.15                   119.50                   141.88                   187.27                   199.75                   207.30                   210.32                   114.50                   135.81                   179.90                   192.44                   199.93                   202.95                   113.01                   131.20                   163.91                   172.31                   177.15                   179.32
12.000                   2.2500                   2.0000                   2000.0                   2500.0                   35.000                   146.76                   170.17                   217.26                   230.11                   237.93                   240.94                   149.67                   174.43                   225.38                   239.96                   248.59                   251.66                   152.23                   177.94                   230.90                   245.49                   254.20                   257.53                   147.75                   171.50                   219.35                   232.56                   240.72                   243.85                   146.65                   170.24                   217.94                   231.14                   239.09                   242.10                   149.83                   175.18                   228.29                   243.49                   252.68                   255.92                   149.62                   174.35                   224.88                   238.59                   246.58                   249.68                   144.07                   167.28                   214.13                   226.97                   234.69                   237.72                   137.69                   159.82                   205.55                   218.59                   226.40                   229.45                   135.43                   154.17                   187.87                   196.57                   201.57                   203.74
12.000                   2.2500                   2.0000                   2000.0                   2500.0                   40.000                   172.11                   196.49                   245.54                   258.95                   267.13                   270.22                   175.40                   201.25                   254.44                   269.64                   278.61                   281.73                   178.43                   205.29                   260.51                   275.73                   284.75                   288.17                   173.34                   198.13                   248.01                   261.74                   270.21                   273.41                   171.91                   196.47                   246.07                   259.77                   268.03                   271.09                   175.57                   202.15                   257.93                   273.96                   283.72                   287.08                   175.44                   201.32                   254.27                   268.64                   277.00                   280.20                   168.65                   192.69                   240.99                   254.19                   262.08                   265.13                   160.89                   183.82                   231.20                   244.74                   252.87                   255.94                   157.85                   177.14                   211.84                   220.82                   225.99                   228.16
12.000                   2.2500                   2.0000                   2000.0                   2500.0                   45.000                   197.65                   222.95                   273.93                   287.92                   296.49                   299.66                   201.24                   228.05                   283.31                   299.08                   308.35                   311.50                   204.69                   232.58                   289.87                   305.64                   314.96                   318.47                   199.10                   224.86                   276.73                   291.02                   299.84                   303.10                   197.37                   222.87                   274.41                   288.66                   297.26                   300.39                   201.37                   229.03                   287.09                   303.81                   314.04                   317.51                   201.40                   228.33                   283.60                   298.67                   307.51                   310.81                   193.28                   218.05                   267.78                   281.35                   289.43                   292.49                   184.16                   207.83                   256.80                   270.82                   279.23                   282.33                   180.33                   200.07                   235.61                   244.85                   250.16                   252.32
12.000                   2.2500                   2.0000                   2000.0                   2500.0                   50.000                   223.36                   249.53                   302.42                   317.01                   325.98                   329.23                   227.16                   254.86                   312.02                   328.31                   337.86                   341.00                   231.02                   259.84                   319.00                   335.27                   344.86                   348.46                   225.00                   251.68                   305.49                   320.38                   329.58                   332.91                   223.02                   249.41                   302.93                   317.77                   326.75                   329.95                   227.23                   255.83                   315.84                   333.12                   343.75                   347.29                   227.47                   255.38                   312.89                   328.69                   338.09                   341.51                   217.93                   243.38                   294.50                   308.46                   316.74                   319.81                   207.51                   231.83                   282.33                   296.82                   305.51                   308.61                   202.85                   222.95                   259.23                   268.68                   274.11                   276.27
12.000                   2.2500                   2.0000                   2000.0                   2500.0                   55.000                   249.06                   276.11                   330.90                   346.11                   355.48                   358.80                   253.08                   281.67                   340.73                   357.53                   367.36                   370.51                   257.35                   287.10                   348.14                   364.90                   374.77                   378.45                   250.91                   278.49                   334.25                   349.74                   359.32                   362.72                   248.66                   275.95                   331.45                   346.88                   356.23                   359.51                   253.09                   282.62                   344.58                   362.44                   373.46                   377.07                   253.54                   282.43                   342.17                   358.70                   368.67                   372.20                   242.59                   268.70                   321.22                   335.57                   344.06                   347.13                   230.85                   255.84                   307.87                   322.83                   331.78                   334.90                   225.36                   245.84                   282.84                   292.50                   298.07                   300.21
12.000                   2.2500                   2.0000                   2000.0                   2500.0                   60.000                   273.75                   301.45                   357.74                   373.45                   383.15                   386.51                   277.87                   307.06                   367.25                   384.26                   394.15                   397.28                   282.39                   312.78                   375.20                   392.39                   402.55                   406.27                   275.74                   303.97                   361.20                   377.17                   387.05                   390.48                   273.52                   301.54                   358.65                   374.58                   384.23                   387.55                   277.76                   307.89                   370.99                   389.13                   400.33                   403.97                   278.32                   307.83                   368.90                   385.80                   396.02                   399.57                   266.06                   292.64                   346.11                   360.70                   369.30                   372.35                   253.06                   278.43                   331.32                   346.47                   355.53                   358.64                   246.68                   267.32                   304.63                   314.37                   320.01                   322.14
12.000                   2.2500                   2.0000                   2000.0                   2500.0                   65.000                   298.05                   326.34                   383.99                   400.15                   410.15                   413.53                   302.25                   331.91                   392.96                   410.07                   419.94                   423.03                   306.96                   337.87                   401.50                   419.09                   429.55                   433.29                   300.16                   328.96                   387.48                   403.89                   414.05                   417.48                   298.08                   326.77                   385.36                   401.75                   411.69                   415.03                   301.98                   332.59                   396.53                   414.85                   426.15                   429.79                   302.61                   332.61                   394.68                   411.80                   422.16                   425.71                   289.09                   316.07                   370.31                   385.09                   393.77                   396.79                   274.84                   300.51                   354.00                   369.22                   378.33                   381.43                   267.54                   288.27                   325.73                   335.50                   341.20                   343.32
12.000                   2.2500                   2.0000                   2000.0                   2500.0                   70.000                   322.35                   351.22                   410.23                   426.85                   437.15                   440.56                   326.62                   356.77                   418.66                   435.87                   445.73                   448.78                   331.53                   362.96                   427.79                   445.79                   456.55                   460.32                   324.58                   353.95                   413.76                   430.61                   441.04                   444.49                   322.64                   352.00                   412.07                   428.92                   439.14                   442.51                   326.21                   357.28                   422.07                   440.56                   451.96                   455.61                   326.90                   357.39                   420.46                   437.80                   448.30                   451.85                   312.12                   339.49                   394.52                   409.47                   418.24                   421.23                   296.62                   322.59                   376.68                   391.98                   401.14                   404.23                   288.41                   309.23                   346.84                   356.64                   362.40                   364.50
12.000                   2.2500                   2.0000                   2000.0                   2500.0                   75.000                   346.65                   376.11                   436.47                   453.55                   464.15                   467.58                   351.00                   381.63                   444.37                   461.68                   471.51                   474.53                   356.10                   388.05                   454.09                   472.49                   483.55                   487.34                   349.01                   378.94                   440.05                   457.33                   468.03                   471.49                   347.20                   377.23                   438.78                   456.10                   466.60                   469.99                   350.43                   381.98                   447.62                   466.28                   477.78                   481.43                   351.20                   382.17                   446.24                   463.80                   474.44                   477.98                   335.15                   362.91                   418.72                   433.86                   442.70                   445.67                   318.41                   344.66                   399.36                   414.73                   423.94                   427.02                   309.27                   330.18                   367.95                   377.77                   383.59                   385.67