% Model:              batchmodel_COIL_N_12_COIL_kr_3_COIL_kh_1.5_FUNZ_freq_6000_FUNZ_I_eff_4000.mph
% Version:            COMSOL 6.0.0.318
% Date:               Feb 8 2022, 20:43
% Table:              Tabella 1 - GRIGLIA_T
% COIL_N                 COIL_kr                  COIL_kh                  FUNZ_freq                FUNZ_I_eff               Time (s)                 Temperatura (degC), Point: (0, 0)Temperatura (degC), Point: (15, 0)Temperatura (degC), Point: (27.483, 0)Temperatura (degC), Point: (28.742, 0)Temperatura (degC), Point: (29.497, 0)Temperatura (degC), Point: (29.99, 0)Temperatura (degC), Point: (0, 62.5)Temperatura (degC), Point: (15, 62.5)Temperatura (degC), Point: (27.483, 62.5)Temperatura (degC), Point: (28.742, 62.5)Temperatura (degC), Point: (29.497, 62.5)Temperatura (degC), Point: (29.99, 62.5)Temperatura (degC), Point: (0, 125)Temperatura (degC), Point: (15, 125)Temperatura (degC), Point: (27.483, 125)Temperatura (degC), Point: (28.742, 125)Temperatura (degC), Point: (29.497, 125)Temperatura (degC), Point: (29.99, 125)Temperatura (degC), Point: (0, 187.5)Temperatura (degC), Point: (15, 187.5)Temperatura (degC), Point: (27.483, 187.5)Temperatura (degC), Point: (28.742, 187.5)Temperatura (degC), Point: (29.497, 187.5)Temperatura (degC), Point: (29.99, 187.5)Temperatura (degC), Point: (0, 250)Temperatura (degC), Point: (15, 250)Temperatura (degC), Point: (27.483, 250)Temperatura (degC), Point: (28.742, 250)Temperatura (degC), Point: (29.497, 250)Temperatura (degC), Point: (29.99, 250)Temperatura (degC), Point: (0, 312.5)Temperatura (degC), Point: (15, 312.5)Temperatura (degC), Point: (27.483, 312.5)Temperatura (degC), Point: (28.742, 312.5)Temperatura (degC), Point: (29.497, 312.5)Temperatura (degC), Point: (29.99, 312.5)Temperatura (degC), Point: (0, 375)Temperatura (degC), Point: (15, 375)Temperatura (degC), Point: (27.483, 375)Temperatura (degC), Point: (28.742, 375)Temperatura (degC), Point: (29.497, 375)Temperatura (degC), Point: (29.99, 375)Temperatura (degC), Point: (0, 437.5)Temperatura (degC), Point: (15, 437.5)Temperatura (degC), Point: (27.483, 437.5)Temperatura (degC), Point: (28.742, 437.5)Temperatura (degC), Point: (29.497, 437.5)Temperatura (degC), Point: (29.99, 437.5)Temperatura (degC), Point: (0, 468.75)Temperatura (degC), Point: (15, 468.75)Temperatura (degC), Point: (27.483, 468.75)Temperatura (degC), Point: (28.742, 468.75)Temperatura (degC), Point: (29.497, 468.75)Temperatura (degC), Point: (29.99, 468.75)Temperatura (degC), Point: (0, 492.19)Temperatura (degC), Point: (15, 492.19)Temperatura (degC), Point: (27.483, 492.19)Temperatura (degC), Point: (28.742, 492.19)Temperatura (degC), Point: (29.497, 492.19)Temperatura (degC), Point: (29.99, 492.19)
12.000                   3.0000                   1.5000                   6000.0                   4000.0                   0.0000                   20.000                   20.000                   20.000                   20.000                   20.064                   20.331                   20.000                   20.000                   20.000                   20.000                   20.067                   20.341                   20.000                   20.000                   20.000                   20.000                   20.068                   20.346                   20.000                   20.000                   20.000                   20.000                   20.064                   20.334                   20.000                   20.000                   20.000                   20.000                   20.065                   20.335                   20.000                   20.000                   20.000                   20.000                   20.068                   20.347                   20.000                   20.000                   20.000                   20.000                   20.066                   20.338                   20.000                   20.000                   20.000                   20.000                   20.062                   20.328                   20.000                   20.000                   20.000                   20.000                   20.063                   20.329                   20.000                   20.000                   20.000                   20.000                   20.052                   20.301
12.000                   3.0000                   1.5000                   6000.0                   4000.0                   5.0000                   26.973                   54.433                   196.62                   222.15                   238.16                   243.91                   27.323                   56.167                   203.38                   230.19                   246.78                   252.66                   26.965                   54.394                   198.30                   225.28                   241.90                   247.69                   27.015                   54.490                   195.67                   221.58                   237.68                   243.42                   27.139                   55.326                   202.03                   228.46                   244.68                   250.40                   27.357                   56.441                   208.42                   235.70                   252.51                   258.37                   27.195                   55.874                   206.83                   231.88                   247.58                   253.17                   26.786                   53.514                   192.17                   217.40                   232.99                   238.64                   26.740                   52.689                   186.32                   210.80                   226.05                   231.59                   39.330                   63.942                   178.14                   197.97                   210.35                   215.04
12.000                   3.0000                   1.5000                   6000.0                   4000.0                   10.000                   73.017                   133.40                   331.95                   365.08                   385.07                   391.48                   75.008                   137.82                   345.00                   380.02                   401.06                   407.70                   73.132                   134.14                   337.37                   372.25                   393.01                   399.68                   73.132                   133.60                   333.26                   366.97                   387.25                   393.75                   74.133                   136.04                   341.24                   375.29                   395.68                   402.18                   75.964                   140.19                   353.38                   389.09                   410.19                   416.88                   74.220                   136.57                   343.56                   377.02                   397.31                   403.88                   71.695                   130.82                   325.13                   357.42                   376.92                   383.15                   71.186                   128.38                   315.80                   346.60                   365.25                   371.30                   90.632                   142.26                   297.30                   320.72                   335.04                   339.94
12.000                   3.0000                   1.5000                   6000.0                   4000.0                   15.000                   146.04                   223.64                   466.95                   508.67                   532.67                   539.73                   149.42                   229.42                   481.25                   524.50                   549.30                   556.52                   146.52                   225.39                   475.83                   519.25                   544.21                   551.51                   146.14                   223.94                   468.75                   510.88                   535.17                   542.30                   147.94                   226.79                   474.70                   517.15                   541.49                   548.60                   151.59                   233.10                   490.32                   534.52                   559.69                   566.98                   147.79                   227.05                   476.63                   518.86                   543.14                   550.30                   142.83                   218.30                   452.42                   492.13                   515.18                   522.03                   140.83                   212.97                   434.30                   471.30                   492.95                   499.49                   156.42                   220.30                   396.54                   423.29                   439.31                   444.46
12.000                   3.0000                   1.5000                   6000.0                   4000.0                   20.000                   226.29                   315.52                   593.85                   641.34                   668.40                   676.29                   230.42                   321.90                   610.25                   660.57                   688.83                   696.61                   227.25                   318.34                   609.26                   661.83                   690.69                   698.37                   226.31                   315.79                   598.14                   647.78                   675.57                   683.12                   228.47                   318.59                   604.26                   654.83                   683.13                   690.74                   233.35                   326.35                   622.29                   674.76                   704.41                   712.37                   228.20                   319.15                   609.49                   660.42                   688.95                   696.58                   220.77                   307.09                   576.39                   622.89                   648.71                   656.00                   216.19                   297.80                   549.02                   591.66                   616.01                   622.98                   227.22                   298.16                   492.45                   521.23                   538.29                   543.64
12.000                   3.0000                   1.5000                   6000.0                   4000.0                   25.000                   306.77                   403.39                   704.61                   762.09                   794.52                   802.99                   311.23                   409.98                   721.72                   783.53                   818.31                   827.11                   308.30                   407.21                   722.29                   785.32                   820.66                   829.56                   306.77                   403.80                   709.12                   768.08                   801.30                   809.88                   308.88                   406.10                   712.48                   772.21                   805.84                   814.49                   314.49                   414.63                   733.56                   798.59                   834.62                   843.52                   308.73                   407.17                   718.80                   780.02                   814.42                   823.15                   299.09                   392.82                   685.55                   739.84                   770.16                   778.11                   291.38                   379.84                   655.31                   705.02                   732.69                   740.09                   294.63                   371.15                   580.68                   613.36                   632.22                   637.64
12.000                   3.0000                   1.5000                   6000.0                   4000.0                   30.000                   383.24                   483.64                   813.48                   886.45                   922.70                   930.94                   387.78                   490.19                   835.38                   911.71                   948.30                   956.46                   385.30                   488.17                   837.25                   914.56                   951.50                   959.71                   383.28                   484.14                   817.59                   891.30                   927.59                   935.81                   385.14                   485.99                   820.94                   895.12                   931.44                   939.65                   391.05                   494.74                   850.39                   928.29                   965.01                   973.03                   385.19                   487.29                   829.50                   905.11                   941.63                   949.82                   373.93                   471.69                   785.65                   853.62                   889.20                   897.57                   363.15                   455.41                   740.30                   796.16                   827.14                   834.94                   358.98                   439.26                   657.64                   692.55                   712.36                   717.75
12.000                   3.0000                   1.5000                   6000.0                   4000.0                   35.000                   454.37                   556.83                   917.04                   983.11                   1012.9                   1018.8                   458.90                   563.40                   932.07                   994.69                   1022.2                   1027.4                   456.90                   562.30                   959.81                   1027.9                   1053.1                   1057.0                   454.48                   557.43                   920.35                   986.22                   1015.7                   1021.6                   456.07                   559.00                   923.58                   989.46                   1018.8                   1024.5                   462.08                   568.20                   987.35                   1056.0                   1077.4                   1079.9                   456.28                   560.40                   927.77                   991.61                   1019.9                   1025.3                   443.94                   543.91                   890.78                   959.33                   991.01                   997.64                   430.43                   524.17                   827.28                   890.67                   922.28                   929.42                   420.94                   502.60                   717.73                   751.85                   771.56                   776.74
12.000                   3.0000                   1.5000                   6000.0                   4000.0                   40.000                   517.50                   619.50                   1037.4                   1088.0                   1101.3                   1101.8                   521.91                   623.43                   943.27                   984.05                   1002.7                   1006.3                   520.81                   626.88                   1042.9                   1083.9                   1094.5                   1094.6                   517.48                   618.12                   958.32                   1007.1                   1028.2                   1032.0                   518.97                   620.37                   1009.1                   1063.7                   1080.3                   1081.8                   525.54                   632.47                   1062.7                   1100.0                   1108.9                   1108.6                   519.28                   620.69                   947.22                   990.64                   1010.4                   1014.1                   506.33                   606.47                   971.96                   1024.4                   1044.0                   1046.9                   490.04                   583.31                   902.07                   960.40                   987.88                   993.59                   476.82                   556.95                   762.16                   797.09                   816.78                   821.67
12.000                   3.0000                   1.5000                   6000.0                   4000.0                   45.000                   574.45                   674.75                   1090.2                   1118.5                   1124.4                   1123.3                   578.09                   672.50                   950.57                   981.22                   995.61                   998.25                   578.54                   682.25                   1076.7                   1103.4                   1109.3                   1108.3                   573.68                   668.09                   970.83                   1007.8                   1024.1                   1026.8                   575.33                   672.79                   1065.1                   1099.6                   1107.9                   1107.4                   582.74                   686.92                   1082.2                   1107.5                   1112.9                   1111.8                   575.57                   670.43                   961.12                   994.40                   1009.6                   1012.4                   563.20                   661.63                   1028.3                   1063.7                   1073.6                   1073.9                   544.23                   635.01                   947.99                   991.62                   1011.2                   1014.8                   527.57                   603.93                   802.17                   836.15                   854.36                   858.67
12.000                   3.0000                   1.5000                   6000.0                   4000.0                   50.000                   621.72                   718.98                   1098.4                   1118.8                   1122.5                   1121.0                   623.90                   710.09                   965.20                   990.17                   1001.7                   1003.6                   625.99                   725.47                   1090.4                   1110.3                   1114.1                   1112.7                   619.64                   706.22                   979.99                   1009.2                   1022.0                   1024.0                   621.74                   713.99                   1076.3                   1102.0                   1107.7                   1106.7                   629.46                   728.81                   1090.8                   1110.4                   1114.1                   1112.7                   621.62                   708.86                   979.36                   1006.5                   1018.3                   1020.0                   611.13                   705.11                   1042.5                   1069.2                   1076.3                   1076.0                   590.84                   678.35                   990.26                   1025.3                   1038.4                   1040.0                   571.32                   642.48                   836.06                   867.71                   884.46                   888.27
12.000                   3.0000                   1.5000                   6000.0                   4000.0                   55.000                   661.73                   757.48                   1099.9                   1115.6                   1118.1                   1116.4                   662.43                   742.60                   983.11                   1003.7                   1012.7                   1013.8                   665.86                   763.75                   1096.8                   1112.1                   1114.6                   1112.9                   658.40                   738.68                   990.74                   1013.9                   1023.6                   1024.8                   660.94                   749.56                   1078.3                   1098.5                   1102.7                   1101.4                   668.55                   765.98                   1095.0                   1110.5                   1113.1                   1111.4                   660.44                   742.08                   1000.1                   1022.8                   1031.6                   1032.4                   652.03                   741.88                   1052.4                   1073.6                   1078.9                   1078.1                   631.64                   716.12                   1031.0                   1059.7                   1068.2                   1068.3                   609.78                   675.73                   867.03                   896.60                   912.07                   915.43
12.000                   3.0000                   1.5000                   6000.0                   4000.0                   60.000                   694.70                   793.61                   1098.8                   1111.4                   1113.0                   1111.1                   694.18                   773.85                   1003.7                   1021.2                   1027.8                   1028.1                   698.40                   800.54                   1099.0                   1111.1                   1112.6                   1110.7                   690.50                   769.06                   1004.9                   1023.6                   1030.8                   1031.2                   693.30                   783.10                   1076.3                   1092.4                   1095.6                   1094.2                   700.32                   801.64                   1095.8                   1108.3                   1110.0                   1108.2                   692.51                   773.75                   1021.8                   1041.0                   1047.3                   1047.2                   686.16                   775.72                   1060.1                   1077.3                   1081.2                   1080.1                   666.90                   749.89                   1061.6                   1083.9                   1089.3                   1088.4                   643.30                   704.28                   894.68                   921.91                   935.96                   938.86
12.000                   3.0000                   1.5000                   6000.0                   4000.0                   65.000                   721.00                   828.40                   1096.3                   1106.6                   1107.6                   1105.7                   719.60                   806.65                   1026.4                   1041.3                   1045.9                   1045.4                   723.82                   835.89                   1098.7                   1108.4                   1109.2                   1107.3                   716.47                   800.41                   1022.3                   1037.8                   1042.9                   1042.5                   719.23                   816.43                   1074.0                   1087.0                   1089.3                   1087.8                   724.97                   835.78                   1094.2                   1104.4                   1105.5                   1103.6                   718.31                   806.61                   1041.8                   1057.7                   1062.0                   1061.2                   713.92                   809.37                   1066.1                   1079.8                   1082.5                   1081.1                   697.04                   782.94                   1081.1                   1098.0                   1101.2                   1099.8                   672.49                   728.91                   918.55                   942.99                   955.52                   957.96
12.000                   3.0000                   1.5000                   6000.0                   4000.0                   70.000                   745.10                   860.98                   1094.4                   1102.8                   1103.3                   1101.3                   742.88                   840.41                   1046.9                   1059.2                   1062.1                   1060.9                   748.13                   868.78                   1098.5                   1106.2                   1106.5                   1104.5                   739.59                   833.05                   1040.0                   1052.7                   1056.0                   1055.0                   742.79                   849.10                   1075.0                   1085.4                   1086.9                   1085.2                   748.89                   867.91                   1093.8                   1102.0                   1102.5                   1100.5                   741.64                   840.02                   1057.9                   1070.6                   1073.3                   1072.0                   738.27                   842.49                   1071.7                   1082.6                   1084.3                   1082.7                   722.20                   816.90                   1092.8                   1105.6                   1107.4                   1105.7                   697.22                   752.67                   938.92                   960.46                   971.40                   973.38
12.000                   3.0000                   1.5000                   6000.0                   4000.0                   75.000                   767.20                   891.52                   1093.0                   1099.8                   1099.9                   1097.8                   764.21                   875.05                   1065.5                   1075.0                   1076.4                   1074.8                   771.45                   899.43                   1098.3                   1104.6                   1104.4                   1102.3                   760.11                   866.87                   1058.0                   1068.2                   1070.1                   1068.7                   764.18                   881.17                   1079.2                   1087.3                   1088.1                   1086.3                   772.13                   898.20                   1094.5                   1101.0                   1101.1                   1099.0                   762.72                   873.93                   1070.4                   1080.0                   1081.3                   1079.7                   759.49                   875.12                   1077.1                   1085.6                   1086.5                   1084.7                   742.83                   851.67                   1097.4                   1107.5                   1108.5                   1106.5                   717.87                   775.63                   956.08                   974.65                   983.94                   985.44