% Model:              batchmodel_COIL_N_12_COIL_kr_3_COIL_kh_2_FUNZ_freq_6000_FUNZ_I_eff_2500.mph
% Version:            COMSOL 6.0.0.318
% Date:               Feb 8 2022, 20:37
% Table:              Tabella 1 - GRIGLIA_T
% COIL_N                 COIL_kr                  COIL_kh                  FUNZ_freq                FUNZ_I_eff               Time (s)                 Temperatura (degC), Point: (0, 0)Temperatura (degC), Point: (15, 0)Temperatura (degC), Point: (27.483, 0)Temperatura (degC), Point: (28.742, 0)Temperatura (degC), Point: (29.497, 0)Temperatura (degC), Point: (29.99, 0)Temperatura (degC), Point: (0, 62.5)Temperatura (degC), Point: (15, 62.5)Temperatura (degC), Point: (27.483, 62.5)Temperatura (degC), Point: (28.742, 62.5)Temperatura (degC), Point: (29.497, 62.5)Temperatura (degC), Point: (29.99, 62.5)Temperatura (degC), Point: (0, 125)Temperatura (degC), Point: (15, 125)Temperatura (degC), Point: (27.483, 125)Temperatura (degC), Point: (28.742, 125)Temperatura (degC), Point: (29.497, 125)Temperatura (degC), Point: (29.99, 125)Temperatura (degC), Point: (0, 187.5)Temperatura (degC), Point: (15, 187.5)Temperatura (degC), Point: (27.483, 187.5)Temperatura (degC), Point: (28.742, 187.5)Temperatura (degC), Point: (29.497, 187.5)Temperatura (degC), Point: (29.99, 187.5)Temperatura (degC), Point: (0, 250)Temperatura (degC), Point: (15, 250)Temperatura (degC), Point: (27.483, 250)Temperatura (degC), Point: (28.742, 250)Temperatura (degC), Point: (29.497, 250)Temperatura (degC), Point: (29.99, 250)Temperatura (degC), Point: (0, 312.5)Temperatura (degC), Point: (15, 312.5)Temperatura (degC), Point: (27.483, 312.5)Temperatura (degC), Point: (28.742, 312.5)Temperatura (degC), Point: (29.497, 312.5)Temperatura (degC), Point: (29.99, 312.5)Temperatura (degC), Point: (0, 375)Temperatura (degC), Point: (15, 375)Temperatura (degC), Point: (27.483, 375)Temperatura (degC), Point: (28.742, 375)Temperatura (degC), Point: (29.497, 375)Temperatura (degC), Point: (29.99, 375)Temperatura (degC), Point: (0, 437.5)Temperatura (degC), Point: (15, 437.5)Temperatura (degC), Point: (27.483, 437.5)Temperatura (degC), Point: (28.742, 437.5)Temperatura (degC), Point: (29.497, 437.5)Temperatura (degC), Point: (29.99, 437.5)Temperatura (degC), Point: (0, 468.75)Temperatura (degC), Point: (15, 468.75)Temperatura (degC), Point: (27.483, 468.75)Temperatura (degC), Point: (28.742, 468.75)Temperatura (degC), Point: (29.497, 468.75)Temperatura (degC), Point: (29.99, 468.75)Temperatura (degC), Point: (0, 492.19)Temperatura (degC), Point: (15, 492.19)Temperatura (degC), Point: (27.483, 492.19)Temperatura (degC), Point: (28.742, 492.19)Temperatura (degC), Point: (29.497, 492.19)Temperatura (degC), Point: (29.99, 492.19)
12.000                   3.0000                   2.0000                   6000.0                   2500.0                   0.0000                   20.000                   20.000                   20.000                   20.000                   20.019                   20.193                   20.000                   20.000                   20.000                   20.000                   20.020                   20.197                   20.000                   20.000                   20.000                   20.000                   20.020                   20.199                   20.000                   20.000                   20.000                   20.000                   20.020                   20.194                   20.000                   20.000                   20.000                   20.000                   20.019                   20.194                   20.000                   20.000                   20.000                   20.000                   20.020                   20.199                   20.000                   20.000                   20.000                   20.000                   20.020                   20.197                   20.000                   20.000                   20.000                   20.000                   20.019                   20.190                   20.000                   20.000                   20.000                   20.000                   20.018                   20.188                   20.000                   20.000                   20.000                   20.000                   20.011                   20.158
12.000                   3.0000                   2.0000                   6000.0                   2500.0                   5.0000                   23.847                   35.150                   93.010                   103.38                   109.54                   112.14                   23.794                   34.932                   92.697                   103.47                   110.09                   112.88                   23.800                   34.923                   91.029                   101.10                   107.33                   110.08                   23.868                   35.283                   94.888                   105.75                   112.31                   115.13                   23.848                   35.199                   94.789                   105.71                   112.03                   114.78                   23.817                   35.016                   92.087                   102.38                   108.77                   111.62                   23.830                   35.060                   92.852                   103.43                   110.01                   112.90                   23.637                   34.305                   89.421                   99.508                   105.56                   108.11                   23.491                   33.813                   88.568                   98.657                   104.91                   107.61                   24.313                   34.123                   79.319                   87.411                   92.321                   94.521
12.000                   3.0000                   2.0000                   6000.0                   2500.0                   10.000                   42.973                   66.813                   139.30                   150.46                   157.60                   160.55                   42.993                   67.224                   142.33                   153.94                   161.29                   164.32                   42.842                   66.745                   140.96                   152.59                   159.98                   163.03                   43.552                   68.445                   144.78                   156.35                   163.63                   166.62                   43.336                   67.861                   142.84                   154.24                   161.49                   164.47                   43.247                   67.768                   143.84                   155.62                   163.07                   166.12                   43.441                   68.212                   144.73                   156.45                   163.84                   166.87                   42.336                   65.892                   138.62                   149.77                   156.84                   159.77                   41.363                   63.999                   134.38                   145.14                   151.92                   154.75                   41.809                   62.530                   120.43                   128.62                   133.73                   135.98
12.000                   3.0000                   2.0000                   6000.0                   2500.0                   15.000                   74.317                   106.86                   201.19                   215.45                   223.62                   226.98                   74.303                   106.65                   196.94                   210.46                   218.59                   221.83                   73.921                   105.86                   195.41                   209.19                   217.96                   221.20                   75.563                   108.85                   203.07                   217.05                   225.14                   228.36                   75.220                   108.40                   203.96                   218.37                   226.85                   230.26                   74.841                   107.33                   197.78                   211.48                   220.04                   223.28                   75.235                   107.95                   198.83                   212.33                   220.50                   223.70                   72.946                   104.51                   193.12                   206.41                   214.19                   217.29                   70.328                   100.16                   183.82                   195.95                   203.13                   205.96                   70.343                   97.535                   165.69                   175.19                   180.89                   183.23
12.000                   3.0000                   2.0000                   6000.0                   2500.0                   20.000                   112.46                   151.13                   258.34                   273.76                   282.32                   285.83                   112.15                   150.12                   252.43                   267.44                   276.33                   279.80                   111.52                   148.95                   249.96                   265.10                   274.63                   277.99                   114.09                   153.01                   258.22                   273.26                   281.85                   285.27                   113.94                   153.30                   263.05                   279.12                   288.65                   292.43                   112.88                   150.91                   254.01                   269.52                   278.96                   282.44                   113.31                   151.35                   253.63                   268.64                   277.62                   281.08                   109.48                   146.00                   243.32                   257.35                   265.31                   268.48                   104.73                   138.93                   231.76                   244.73                   252.22                   255.05                   104.40                   135.44                   209.46                   219.41                   225.30                   227.55
12.000                   3.0000                   2.0000                   6000.0                   2500.0                   25.000                   154.33                   195.77                   304.31                   319.87                   329.37                   332.84                   153.84                   194.82                   302.61                   318.34                   328.02                   331.54                   153.17                   193.81                   301.41                   317.29                   327.12                   330.66                   156.23                   197.87                   306.55                   322.21                   331.77                   335.27                   156.28                   198.32                   308.46                   324.28                   333.96                   337.48                   154.75                   195.85                   304.51                   320.48                   330.31                   333.86                   155.00                   195.95                   303.61                   319.34                   329.01                   332.54                   149.35                   188.42                   290.13                   304.83                   313.87                   317.22                   141.95                   178.11                   272.27                   285.81                   294.15                   297.29                   138.87                   170.51                   243.53                   253.08                   258.93                   261.27
12.000                   3.0000                   2.0000                   6000.0                   2500.0                   30.000                   196.87                   240.83                   356.32                   373.37                   383.74                   387.16                   196.30                   239.93                   355.34                   372.44                   382.79                   386.33                   195.69                   239.14                   354.30                   371.15                   381.32                   384.99                   198.99                   243.16                   359.55                   376.78                   387.46                   391.02                   199.27                   243.89                   361.36                   378.42                   388.53                   392.04                   197.41                   241.24                   357.17                   374.12                   384.44                   388.11                   197.47                   241.18                   357.52                   374.86                   385.46                   389.10                   189.94                   231.48                   340.90                   357.01                   366.83                   370.30                   179.75                   217.81                   317.91                   332.46                   341.32                   344.62                   174.36                   206.85                   280.99                   290.55                   296.26                   298.59
12.000                   3.0000                   2.0000                   6000.0                   2500.0                   35.000                   239.85                   286.67                   414.04                   433.11                   444.34                   447.89                   239.10                   285.26                   409.42                   427.93                   438.87                   442.47                   238.61                   284.58                   407.30                   425.26                   435.92                   439.64                   242.02                   288.89                   416.12                   435.41                   447.09                   450.78                   242.57                   289.95                   419.06                   438.29                   449.63                   453.37                   240.46                   286.92                   411.84                   430.38                   441.37                   445.15                   240.30                   286.75                   412.78                   431.71                   443.04                   446.84                   230.90                   275.01                   393.51                   411.19                   421.74                   425.35                   217.79                   257.88                   365.78                   381.32                   390.41                   393.69                   210.55                   244.12                   322.13                   332.59                   338.82                   341.24
12.000                   3.0000                   2.0000                   6000.0                   2500.0                   40.000                   282.38                   331.69                   466.64                   487.02                   499.04                   502.79                   281.60                   330.38                   463.26                   483.37                   495.26                   499.05                   281.28                   329.95                   462.11                   481.95                   493.72                   497.59                   284.52                   333.87                   468.86                   489.45                   501.77                   505.61                   285.23                   335.03                   471.45                   492.03                   504.19                   508.07                   283.20                   332.32                   466.26                   486.51                   498.51                   502.42                   282.74                   331.77                   465.99                   486.37                   498.50                   502.41                   271.49                   317.97                   443.89                   462.84                   474.15                   477.87                   255.25                   297.11                   410.28                   426.87                   436.70                   440.09                   244.79                   279.14                   359.95                   370.88                   377.47                   379.94
12.000                   3.0000                   2.0000                   6000.0                   2500.0                   45.000                   324.82                   376.56                   518.30                   539.88                   552.67                   556.63                   324.05                   375.46                   517.04                   538.77                   551.68                   555.69                   323.90                   375.31                   517.22                   539.06                   552.04                   556.08                   326.92                   378.72                   520.92                   542.66                   555.58                   559.56                   327.78                   379.93                   522.90                   544.67                   557.57                   561.56                   325.87                   377.66                   520.60                   542.58                   555.62                   559.67                   325.10                   376.69                   518.86                   540.65                   553.60                   557.62                   312.01                   360.84                   493.88                   514.05                   526.11                   529.94                   292.61                   336.20                   454.21                   471.86                   482.51                   486.03                   278.70                   313.77                   397.15                   408.47                   415.39                   417.90
12.000                   3.0000                   2.0000                   6000.0                   2500.0                   50.000                   366.73                   421.23                   572.89                   596.55                   610.41                   614.61                   366.07                   420.42                   572.70                   596.69                   610.89                   615.15                   366.04                   420.48                   574.03                   598.49                   612.97                   617.24                   368.79                   423.41                   575.76                   599.54                   613.49                   617.69                   369.69                   424.55                   577.36                   601.19                   615.14                   619.30                   367.96                   422.67                   576.41                   600.72                   615.13                   619.37                   366.89                   421.32                   573.75                   597.74                   611.89                   616.10                   352.09                   403.46                   545.37                   567.19                   580.12                   584.07                   329.62                   375.20                   500.24                   519.24                   530.65                   534.27                   312.80                   348.89                   435.33                   447.18                   454.44                   457.01
12.000                   3.0000                   2.0000                   6000.0                   2500.0                   55.000                   408.49                   465.85                   628.19                   654.16                   669.16                   673.61                   407.98                   465.35                   628.83                   655.24                   670.77                   675.30                   408.06                   465.61                   631.27                   658.48                   674.54                   679.06                   410.54                   468.06                   631.27                   657.31                   672.41                   676.84                   411.43                   469.11                   632.56                   658.66                   673.73                   678.08                   409.91                   467.61                   632.59                   659.36                   675.23                   679.67                   408.55                   465.88                   629.13                   655.52                   670.96                   675.39                   392.06                   446.03                   597.23                   620.80                   634.64                   638.71                   366.54                   414.19                   546.79                   567.21                   579.36                   583.07                   346.94                   384.14                   473.75                   486.16                   493.77                   496.40
12.000                   3.0000                   2.0000                   6000.0                   2500.0                   60.000                   448.21                   507.55                   675.87                   703.57                   719.97                   724.71                   447.85                   507.27                   675.96                   703.58                   720.10                   724.82                   448.08                   507.80                   680.08                   709.35                   726.96                   731.70                   450.33                   509.96                   679.86                   708.00                   724.47                   729.15                   451.20                   510.92                   681.04                   709.23                   725.82                   730.45                   449.81                   509.58                   680.86                   709.53                   726.75                   731.37                   448.22                   507.59                   676.69                   704.75                   721.44                   726.09                   430.46                   486.63                   644.98                   670.22                   685.10                   689.32                   402.30                   451.92                   591.66                   613.58                   626.51                   630.29                   380.07                   418.19                   510.35                   523.13                   530.99                   533.68
12.000                   3.0000                   2.0000                   6000.0                   2500.0                   65.000                   487.23                   548.26                   720.94                   750.17                   768.07                   773.12                   487.02                   548.16                   720.00                   748.43                   765.80                   770.69                   487.41                   548.99                   726.01                   757.09                   776.25                   781.20                   489.46                   550.90                   726.07                   756.26                   774.19                   779.13                   490.30                   551.79                   727.23                   757.43                   775.68                   780.63                   489.01                   550.55                   726.41                   756.80                   775.34                   780.12                   487.20                   548.32                   721.57                   751.06                   768.98                   773.86                   468.32                   526.56                   691.33                   718.20                   734.18                   738.56                   437.66                   489.23                   635.94                   659.40                   673.13                   676.97                   412.86                   451.83                   546.33                   559.42                   567.50                   570.23
12.000                   3.0000                   2.0000                   6000.0                   2500.0                   70.000                   523.88                   585.40                   762.36                   793.49                   812.19                   817.31                   523.88                   585.58                   761.69                   792.00                   810.11                   815.04                   524.48                   586.81                   770.60                   804.26                   824.52                   829.51                   526.36                   588.52                   770.39                   803.11                   822.07                   827.08                   527.12                   589.26                   770.55                   802.69                   821.69                   826.70                   525.92                   588.12                   770.52                   803.39                   822.91                   827.72                   523.93                   585.69                   764.38                   796.10                   814.94                   819.90                   504.12                   563.25                   730.56                   758.94                   775.64                   780.10                   471.42                   524.30                   675.11                   699.64                   713.99                   717.84                   444.57                   484.30                   580.05                   593.24                   601.32                   604.00
12.000                   3.0000                   2.0000                   6000.0                   2500.0                   75.000                   559.44                   620.92                   802.11                   835.32                   854.50                   859.58                   559.69                   621.42                   802.32                   834.99                   853.78                   858.70                   560.51                   623.09                   814.59                   851.16                   872.33                   877.27                   562.25                   624.62                   813.83                   849.33                   869.13                   874.12                   562.91                   625.19                   812.56                   846.62                   865.93                   870.90                   561.78                   624.16                   813.97                   849.67                   870.03                   874.80                   559.63                   621.51                   806.24                   840.58                   860.18                   865.15                   538.98                   598.46                   766.56                   796.39                   813.64                   818.14                   504.45                   558.35                   711.95                   737.35                   752.22                   756.07                   475.80                   516.24                   612.75                   625.93                   633.91                   636.52