% Model:              batchmodel_COIL_N_12_COIL_kr_3_COIL_kh_2_FUNZ_freq_10000_FUNZ_I_eff_4000.mph
% Version:            COMSOL 6.0.0.318
% Date:               Feb 8 2022, 21:23
% Table:              Tabella 1 - GRIGLIA_T
% COIL_N                 COIL_kr                  COIL_kh                  FUNZ_freq                FUNZ_I_eff               Time (s)                 Temperatura (degC), Point: (0, 0)Temperatura (degC), Point: (15, 0)Temperatura (degC), Point: (28.051, 0)Temperatura (degC), Point: (29.025, 0)Temperatura (degC), Point: (29.61, 0)Temperatura (degC), Point: (29.99, 0)Temperatura (degC), Point: (0, 62.5)Temperatura (degC), Point: (15, 62.5)Temperatura (degC), Point: (28.051, 62.5)Temperatura (degC), Point: (29.025, 62.5)Temperatura (degC), Point: (29.61, 62.5)Temperatura (degC), Point: (29.99, 62.5)Temperatura (degC), Point: (0, 125)Temperatura (degC), Point: (15, 125)Temperatura (degC), Point: (28.051, 125)Temperatura (degC), Point: (29.025, 125)Temperatura (degC), Point: (29.61, 125)Temperatura (degC), Point: (29.99, 125)Temperatura (degC), Point: (0, 187.5)Temperatura (degC), Point: (15, 187.5)Temperatura (degC), Point: (28.051, 187.5)Temperatura (degC), Point: (29.025, 187.5)Temperatura (degC), Point: (29.61, 187.5)Temperatura (degC), Point: (29.99, 187.5)Temperatura (degC), Point: (0, 250)Temperatura (degC), Point: (15, 250)Temperatura (degC), Point: (28.051, 250)Temperatura (degC), Point: (29.025, 250)Temperatura (degC), Point: (29.61, 250)Temperatura (degC), Point: (29.99, 250)Temperatura (degC), Point: (0, 312.5)Temperatura (degC), Point: (15, 312.5)Temperatura (degC), Point: (28.051, 312.5)Temperatura (degC), Point: (29.025, 312.5)Temperatura (degC), Point: (29.61, 312.5)Temperatura (degC), Point: (29.99, 312.5)Temperatura (degC), Point: (0, 375)Temperatura (degC), Point: (15, 375)Temperatura (degC), Point: (28.051, 375)Temperatura (degC), Point: (29.025, 375)Temperatura (degC), Point: (29.61, 375)Temperatura (degC), Point: (29.99, 375)Temperatura (degC), Point: (0, 437.5)Temperatura (degC), Point: (15, 437.5)Temperatura (degC), Point: (28.051, 437.5)Temperatura (degC), Point: (29.025, 437.5)Temperatura (degC), Point: (29.61, 437.5)Temperatura (degC), Point: (29.99, 437.5)Temperatura (degC), Point: (0, 468.75)Temperatura (degC), Point: (15, 468.75)Temperatura (degC), Point: (28.051, 468.75)Temperatura (degC), Point: (29.025, 468.75)Temperatura (degC), Point: (29.61, 468.75)Temperatura (degC), Point: (29.99, 468.75)Temperatura (degC), Point: (0, 492.19)Temperatura (degC), Point: (15, 492.19)Temperatura (degC), Point: (28.051, 492.19)Temperatura (degC), Point: (29.025, 492.19)Temperatura (degC), Point: (29.61, 492.19)Temperatura (degC), Point: (29.99, 492.19)
12.000                   3.0000                   2.0000                   10000                    4000.0                   0.0000                   20.000                   20.000                   20.000                   20.000                   20.114                   20.529                   20.000                   20.000                   20.000                   20.000                   20.118                   20.542                   20.000                   20.000                   20.000                   20.000                   20.119                   20.549                   20.000                   20.000                   20.000                   20.000                   20.115                   20.533                   20.000                   20.000                   20.000                   20.000                   20.115                   20.532                   20.000                   20.000                   20.000                   20.000                   20.119                   20.548                   20.000                   20.000                   20.000                   20.000                   20.118                   20.542                   20.000                   20.000                   20.000                   20.000                   20.112                   20.523                   20.000                   20.000                   20.000                   20.000                   20.112                   20.525                   20.000                   20.000                   20.000                   20.000                   20.100                   20.492
12.000                   3.0000                   2.0000                   10000                    4000.0                   5.0000                   29.125                   61.543                   257.30                   286.14                   303.63                   309.69                   29.395                   62.977                   264.30                   294.59                   313.23                   319.52                   29.544                   63.472                   265.80                   296.39                   315.07                   321.32                   29.174                   61.923                   257.94                   287.20                   305.19                   311.34                   29.167                   61.909                   259.54                   289.24                   307.56                   313.78                   29.523                   63.463                   267.51                   298.44                   317.38                   323.66                   29.304                   62.551                   261.90                   291.90                   310.48                   316.72                   28.785                   60.311                   249.00                   276.92                   293.98                   299.84                   28.786                   60.025                   246.87                   274.86                   292.17                   298.08                   35.582                   68.241                   234.83                   257.93                   272.27                   277.50
12.000                   3.0000                   2.0000                   10000                    4000.0                   10.000                   83.667                   160.23                   455.92                   495.93                   519.04                   526.18                   85.072                   163.87                   475.66                   519.17                   544.70                   552.40                   85.138                   163.47                   471.12                   514.64                   540.36                   548.08                   83.928                   160.97                   461.10                   502.97                   527.05                   534.35                   84.082                   161.59                   465.79                   507.19                   531.29                   538.77                   85.326                   164.20                   474.73                   517.36                   542.89                   550.71                   84.428                   162.37                   470.96                   514.83                   540.21                   547.73                   81.785                   156.47                   448.98                   490.49                   514.41                   521.51                   81.124                   153.94                   436.97                   475.96                   499.53                   506.92                   98.069                   167.48                   404.88                   435.35                   453.57                   459.21
12.000                   3.0000                   2.0000                   10000                    4000.0                   15.000                   174.83                   275.39                   652.64                   709.18                   740.98                   749.70                   177.34                   280.16                   666.62                   725.25                   758.10                   766.95                   176.80                   278.95                   661.92                   718.38                   750.91                   760.04                   175.22                   276.32                   654.86                   711.09                   743.51                   752.49                   175.68                   277.24                   656.38                   713.03                   745.11                   753.81                   177.30                   279.87                   661.64                   717.99                   750.14                   759.10                   175.82                   277.63                   658.83                   715.24                   747.35                   756.22                   170.84                   269.30                   636.97                   690.91                   721.10                   729.49                   168.11                   262.81                   611.70                   661.68                   689.48                   697.16                   181.82                   268.76                   547.93                   582.98                   603.00                   608.85
12.000                   3.0000                   2.0000                   10000                    4000.0                   20.000                   271.81                   386.61                   829.08                   904.93                   944.33                   954.03                   274.77                   391.27                   846.85                   926.38                   966.33                   975.87                   273.76                   389.69                   839.29                   913.10                   951.28                   960.95                   272.18                   387.39                   830.98                   904.96                   943.85                   953.63                   272.77                   388.12                   828.77                   902.87                   941.10                   950.59                   274.29                   390.13                   829.25                   902.29                   940.15                   949.69                   272.62                   388.24                   833.21                   908.34                   947.57                   957.27                   266.14                   378.86                   804.38                   876.02                   914.23                   923.86                   260.70                   368.13                   756.43                   819.45                   853.94                   862.91                   272.26                   370.24                   681.56                   722.93                   746.58                   752.88
12.000                   3.0000                   2.0000                   10000                    4000.0                   25.000                   366.74                   488.20                   996.85                   1059.0                   1079.3                   1082.2                   369.72                   492.66                   1028.2                   1087.9                   1104.4                   1106.0                   368.46                   491.24                   1022.3                   1081.2                   1097.6                   1099.2                   367.02                   488.86                   990.16                   1051.8                   1072.4                   1075.4                   367.56                   489.10                   943.41                   997.25                   1021.0                   1025.8                   368.76                   490.61                   942.51                   992.96                   1015.1                   1019.5                   367.25                   489.35                   945.29                   996.38                   1018.6                   1023.1                   359.85                   479.52                   956.32                   1020.4                   1045.6                   1050.2                   351.56                   464.98                   896.32                   962.60                   993.58                   1000.4                   357.12                   459.92                   766.70                   809.71                   833.38                   839.41
12.000                   3.0000                   2.0000                   10000                    4000.0                   30.000                   450.79                   572.88                   1095.7                   1125.2                   1131.9                   1131.5                   453.56                   576.08                   1089.0                   1119.7                   1126.9                   1126.6                   452.53                   575.95                   1075.9                   1106.4                   1113.8                   1113.6                   450.93                   572.70                   1084.0                   1116.0                   1123.6                   1123.4                   451.16                   570.00                   947.77                   980.86                   996.35                   999.59                   452.25                   571.48                   937.31                   968.10                   982.76                   985.89                   451.01                   570.69                   947.07                   978.20                   992.70                   995.74                   443.44                   563.19                   1024.4                   1062.6                   1074.1                   1075.2                   432.82                   546.07                   941.63                   983.75                   1003.4                   1007.6                   431.63                   532.45                   837.19                   878.91                   900.70                   905.94
12.000                   3.0000                   2.0000                   10000                    4000.0                   35.000                   523.05                   641.01                   1100.9                   1120.3                   1124.2                   1123.3                   525.36                   641.95                   1095.7                   1117.2                   1121.9                   1121.1                   524.67                   642.61                   1094.3                   1115.2                   1119.8                   1119.1                   522.79                   639.30                   1099.5                   1120.9                   1125.5                   1124.7                   522.44                   633.16                   969.25                   994.19                   1005.5                   1007.7                   523.75                   634.89                   959.59                   983.08                   994.09                   996.27                   522.61                   634.28                   971.79                   996.05                   1006.9                   1008.9                   515.39                   629.56                   1049.3                   1076.8                   1084.5                   1084.6                   503.22                   612.84                   995.50                   1028.3                   1040.7                   1042.5                   496.69                   593.24                   898.53                   936.52                   955.72                   960.08
12.000                   3.0000                   2.0000                   10000                    4000.0                   40.000                   582.23                   692.42                   1097.5                   1112.5                   1115.3                   1114.2                   583.92                   691.97                   1092.6                   1109.3                   1112.8                   1111.8                   583.49                   693.05                   1097.9                   1114.0                   1117.2                   1116.2                   581.49                   689.74                   1099.1                   1115.7                   1119.1                   1118.0                   580.63                   681.91                   996.71                   1017.7                   1026.2                   1027.3                   582.24                   684.18                   991.06                   1010.2                   1018.1                   1019.2                   581.09                   683.47                   1002.3                   1023.0                   1031.0                   1032.0                   574.60                   680.19                   1061.4                   1083.0                   1088.6                   1088.3                   562.41                   666.60                   1046.7                   1070.6                   1077.2                   1077.2                   552.04                   642.46                   933.66                   964.62                   980.17                   983.56
12.000                   3.0000                   2.0000                   10000                    4000.0                   45.000                   631.44                   733.78                   1093.9                   1106.1                   1108.1                   1106.9                   632.61                   732.66                   1088.8                   1102.2                   1104.7                   1103.6                   632.36                   733.80                   1095.1                   1108.1                   1110.4                   1109.2                   630.31                   730.44                   1093.5                   1107.0                   1109.5                   1108.4                   629.14                   721.84                   1024.7                   1042.6                   1048.6                   1048.8                   631.02                   725.01                   1029.5                   1045.9                   1051.1                   1051.1                   629.85                   723.85                   1032.9                   1050.3                   1055.8                   1055.7                   624.13                   721.09                   1066.3                   1083.4                   1087.6                   1086.9                   612.91                   711.25                   1072.3                   1088.9                   1092.6                   1091.7                   599.98                   683.91                   957.78                   982.61                   994.93                   997.46
12.000                   3.0000                   2.0000                   10000                    4000.0                   50.000                   671.32                   770.21                   1090.9                   1101.1                   1102.6                   1101.3                   672.20                   768.75                   1087.3                   1098.1                   1100.0                   1098.8                   672.04                   769.90                   1091.8                   1102.4                   1104.1                   1102.8                   670.04                   765.98                   1088.4                   1099.6                   1101.5                   1100.3                   668.75                   757.16                   1050.1                   1064.5                   1068.4                   1067.8                   670.82                   761.84                   1059.4                   1072.5                   1075.6                   1074.8                   669.62                   759.89                   1057.7                   1071.3                   1074.7                   1074.0                   664.66                   756.51                   1070.3                   1083.7                   1086.7                   1085.8                   654.95                   749.27                   1081.6                   1094.0                   1096.3                   1095.2                   640.82                   719.45                   994.59                   1014.4                   1022.7                   1023.9
12.000                   3.0000                   2.0000                   10000                    4000.0                   55.000                   702.67                   805.05                   1090.3                   1098.8                   1099.9                   1098.6                   703.32                   803.91                   1089.0                   1097.8                   1099.0                   1097.7                   703.23                   804.98                   1092.0                   1100.6                   1101.7                   1100.4                   701.42                   800.39                   1087.4                   1096.6                   1098.0                   1096.7                   700.18                   792.48                   1069.1                   1080.1                   1082.4                   1081.3                   702.25                   798.60                   1078.1                   1087.9                   1089.6                   1088.4                   701.12                   795.90                   1075.0                   1085.3                   1087.2                   1086.1                   696.98                   791.06                   1076.0                   1086.6                   1088.5                   1087.4                   689.23                   784.93                   1085.5                   1095.3                   1096.9                   1095.7                   675.49                   753.54                   1041.5                   1056.6                   1061.1                   1060.8
12.000                   3.0000                   2.0000                   10000                    4000.0                   60.000                   726.71                   838.68                   1092.5                   1099.6                   1100.2                   1098.8                   727.17                   838.58                   1093.2                   1100.3                   1100.9                   1099.5                   727.13                   839.49                   1095.4                   1102.4                   1103.0                   1101.5                   725.43                   834.47                   1090.4                   1097.8                   1098.7                   1097.2                   724.32                   828.36                   1082.3                   1090.6                   1091.8                   1090.5                   726.37                   835.31                   1090.1                   1097.5                   1098.3                   1096.9                   725.29                   832.13                   1087.0                   1094.8                   1095.7                   1094.3                   721.74                   825.76                   1083.0                   1091.3                   1092.5                   1091.2                   715.75                   819.76                   1088.8                   1096.9                   1097.9                   1096.5                   704.09                   790.84                   1079.3                   1089.8                   1091.6                   1090.4
12.000                   3.0000                   2.0000                   10000                    4000.0                   65.000                   751.25                   870.50                   1096.9                   1102.6                   1102.9                   1101.3                   752.15                   871.58                   1098.8                   1104.5                   1104.6                   1103.1                   752.14                   872.41                   1100.8                   1106.4                   1106.5                   1104.9                   749.90                   867.21                   1095.7                   1101.6                   1102.0                   1100.4                   748.78                   862.78                   1091.6                   1098.0                   1098.4                   1097.0                   751.49                   869.82                   1098.4                   1104.2                   1104.4                   1102.8                   750.09                   866.54                   1095.6                   1101.6                   1101.9                   1100.4                   745.56                   859.13                   1090.1                   1096.7                   1097.2                   1095.8                   739.06                   852.70                   1093.1                   1099.7                   1100.2                   1098.7                   728.23                   831.53                   1101.1                   1108.3                   1108.7                   1107.2
12.000                   3.0000                   2.0000                   10000                    4000.0                   70.000                   778.32                   901.37                   1102.2                   1106.7                   1106.5                   1104.8                   780.11                   903.53                   1104.9                   1109.2                   1109.0                   1107.3                   780.14                   904.34                   1106.8                   1111.1                   1110.8                   1109.1                   776.91                   899.07                   1101.7                   1106.3                   1106.2                   1104.5                   775.68                   896.05                   1099.3                   1104.2                   1104.1                   1102.5                   779.54                   902.83                   1105.6                   1110.0                   1109.7                   1108.0                   777.56                   899.64                   1102.9                   1107.5                   1107.4                   1105.7                   770.97                   891.51                   1097.0                   1102.1                   1102.1                   1100.5                   762.36                   884.43                   1098.0                   1103.2                   1103.3                   1101.7                   750.86                   873.33                   1116.0                   1120.8                   1120.5                   1118.7
12.000                   3.0000                   2.0000                   10000                    4000.0                   75.000                   810.74                   930.77                   1107.8                   1111.2                   1110.6                   1108.8                   813.37                   933.72                   1111.0                   1114.3                   1113.6                   1111.8                   813.47                   934.56                   1112.9                   1116.1                   1115.4                   1113.6                   809.45                   929.30                   1107.8                   1111.3                   1110.7                   1109.0                   808.25                   927.33                   1106.6                   1110.2                   1109.6                   1107.9                   812.96                   933.78                   1112.4                   1115.6                   1115.0                   1113.2                   810.53                   930.72                   1110.0                   1113.3                   1112.7                   1110.9                   802.27                   922.13                   1103.7                   1107.5                   1107.0                   1105.3                   792.15                   914.83                   1103.3                   1107.4                   1107.0                   1105.3                   781.91                   913.29                   1129.2                   1132.2                   1131.2                   1129.2