% Model:              batchmodel_COIL_N_12_COIL_kr_3_COIL_kh_1_FUNZ_freq_10000_FUNZ_I_eff_4000.mph
% Version:            COMSOL 6.0.0.318
% Date:               Feb 8 2022, 20:33
% Table:              Tabella 1 - GRIGLIA_T
% COIL_N                 COIL_kr                  COIL_kh                  FUNZ_freq                FUNZ_I_eff               Time (s)                 Temperatura (degC), Point: (0, 0)Temperatura (degC), Point: (15, 0)Temperatura (degC), Point: (28.051, 0)Temperatura (degC), Point: (29.025, 0)Temperatura (degC), Point: (29.61, 0)Temperatura (degC), Point: (29.99, 0)Temperatura (degC), Point: (0, 62.5)Temperatura (degC), Point: (15, 62.5)Temperatura (degC), Point: (28.051, 62.5)Temperatura (degC), Point: (29.025, 62.5)Temperatura (degC), Point: (29.61, 62.5)Temperatura (degC), Point: (29.99, 62.5)Temperatura (degC), Point: (0, 125)Temperatura (degC), Point: (15, 125)Temperatura (degC), Point: (28.051, 125)Temperatura (degC), Point: (29.025, 125)Temperatura (degC), Point: (29.61, 125)Temperatura (degC), Point: (29.99, 125)Temperatura (degC), Point: (0, 187.5)Temperatura (degC), Point: (15, 187.5)Temperatura (degC), Point: (28.051, 187.5)Temperatura (degC), Point: (29.025, 187.5)Temperatura (degC), Point: (29.61, 187.5)Temperatura (degC), Point: (29.99, 187.5)Temperatura (degC), Point: (0, 250)Temperatura (degC), Point: (15, 250)Temperatura (degC), Point: (28.051, 250)Temperatura (degC), Point: (29.025, 250)Temperatura (degC), Point: (29.61, 250)Temperatura (degC), Point: (29.99, 250)Temperatura (degC), Point: (0, 312.5)Temperatura (degC), Point: (15, 312.5)Temperatura (degC), Point: (28.051, 312.5)Temperatura (degC), Point: (29.025, 312.5)Temperatura (degC), Point: (29.61, 312.5)Temperatura (degC), Point: (29.99, 312.5)Temperatura (degC), Point: (0, 375)Temperatura (degC), Point: (15, 375)Temperatura (degC), Point: (28.051, 375)Temperatura (degC), Point: (29.025, 375)Temperatura (degC), Point: (29.61, 375)Temperatura (degC), Point: (29.99, 375)Temperatura (degC), Point: (0, 437.5)Temperatura (degC), Point: (15, 437.5)Temperatura (degC), Point: (28.051, 437.5)Temperatura (degC), Point: (29.025, 437.5)Temperatura (degC), Point: (29.61, 437.5)Temperatura (degC), Point: (29.99, 437.5)Temperatura (degC), Point: (0, 468.75)Temperatura (degC), Point: (15, 468.75)Temperatura (degC), Point: (28.051, 468.75)Temperatura (degC), Point: (29.025, 468.75)Temperatura (degC), Point: (29.61, 468.75)Temperatura (degC), Point: (29.99, 468.75)Temperatura (degC), Point: (0, 492.19)Temperatura (degC), Point: (15, 492.19)Temperatura (degC), Point: (28.051, 492.19)Temperatura (degC), Point: (29.025, 492.19)Temperatura (degC), Point: (29.61, 492.19)Temperatura (degC), Point: (29.99, 492.19)
12.000                   3.0000                   1.0000                   10000                    4000.0                   0.0000                   20.000                   20.000                   20.000                   20.000                   20.109                   20.517                   20.000                   20.000                   20.000                   20.000                   20.117                   20.537                   20.000                   20.000                   20.000                   20.000                   20.119                   20.546                   20.000                   20.000                   20.000                   20.000                   20.110                   20.519                   20.000                   20.000                   20.000                   20.000                   20.113                   20.526                   20.000                   20.000                   20.000                   20.000                   20.119                   20.548                   20.000                   20.000                   20.000                   20.000                   20.113                   20.526                   20.000                   20.000                   20.000                   20.000                   20.106                   20.511                   20.000                   20.000                   20.000                   20.000                   20.109                   20.517                   20.000                   20.000                   20.000                   20.000                   20.108                   20.515
12.000                   3.0000                   1.0000                   10000                    4000.0                   5.0000                   29.843                   62.665                   270.94                   302.59                   321.83                   328.76                   30.062                   63.957                   279.14                   312.54                   332.87                   340.41                   30.045                   63.676                   270.25                   302.09                   321.55                   328.18                   29.702                   62.172                   264.35                   295.03                   313.64                   320.12                   29.925                   63.351                   274.31                   306.99                   326.60                   333.08                   30.258                   64.626                   276.59                   309.13                   328.83                   335.32                   29.864                   63.162                   276.40                   310.21                   330.54                   337.10                   29.571                   61.567                   258.77                   288.27                   306.65                   313.40                   29.573                   61.400                   258.60                   287.88                   305.07                   311.47                   36.023                   70.811                   257.60                   284.45                   300.65                   306.07
12.000                   3.0000                   1.0000                   10000                    4000.0                   10.000                   86.124                   162.84                   458.55                   499.68                   523.44                   530.51                   87.286                   165.77                   471.62                   514.68                   539.41                   546.72                   86.823                   164.54                   468.41                   511.76                   536.75                   544.12                   85.433                   161.44                   455.17                   496.32                   520.15                   527.26                   86.332                   163.32                   460.58                   502.25                   526.34                   533.50                   87.820                   166.32                   472.05                   515.61                   540.66                   548.04                   86.189                   163.21                   460.98                   502.60                   526.63                   533.79                   84.089                   158.16                   441.50                   480.82                   503.73                   510.65                   84.199                   157.74                   437.41                   475.62                   497.89                   504.64                   96.517                   170.12                   419.26                   450.64                   469.18                   474.98
12.000                   3.0000                   1.0000                   10000                    4000.0                   15.000                   174.47                   274.66                   640.45                   694.63                   725.04                   733.26                   176.64                   278.79                   652.99                   708.35                   739.43                   747.94                   175.93                   278.13                   658.96                   716.97                   749.25                   757.91                   173.38                   273.11                   637.10                   690.18                   720.29                   728.57                   174.63                   275.08                   642.67                   696.31                   726.72                   735.09                   177.33                   279.89                   661.53                   719.80                   752.13                   760.78                   174.38                   274.69                   639.86                   692.73                   722.78                   731.15                   170.17                   267.39                   618.80                   668.41                   696.49                   704.40                   169.27                   264.21                   602.18                   649.33                   676.21                   683.76                   179.18                   271.54                   563.32                   600.50                   621.89                   628.10
12.000                   3.0000                   1.0000                   10000                    4000.0                   20.000                   269.41                   381.92                   792.70                   861.47                   896.64                   905.18                   272.25                   386.63                   808.24                   877.69                   912.90                   921.57                   271.83                   387.32                   828.22                   903.40                   940.45                   949.20                   268.07                   380.10                   788.01                   855.12                   890.28                   899.06                   269.52                   382.35                   795.28                   862.22                   897.23                   906.00                   273.13                   388.67                   829.84                   905.19                   942.25                   950.96                   269.00                   381.26                   787.23                   853.14                   887.59                   896.31                   263.24                   372.76                   762.94                   824.86                   857.35                   865.84                   260.35                   366.32                   740.19                   799.89                   832.53                   840.88                   266.98                   368.88                   684.71                   726.02                   749.89                   756.47
12.000                   3.0000                   1.0000                   10000                    4000.0                   25.000                   362.78                   480.69                   934.82                   998.59                   1026.9                   1032.7                   366.00                   485.61                   935.02                   993.16                   1019.4                   1024.8                   366.24                   488.12                   953.88                   1004.2                   1024.7                   1028.6                   361.23                   478.62                   931.46                   996.19                   1025.1                   1031.0                   362.87                   481.17                   935.60                   998.72                   1026.7                   1032.5                   367.15                   489.23                   1061.6                   1116.9                   1130.4                   1131.2                   361.91                   479.36                   929.13                   992.14                   1020.5                   1026.5                   355.12                   470.35                   913.26                   980.33                   1011.1                   1017.7                   349.78                   460.84                   881.55                   950.03                   982.35                   989.59                   353.32                   458.84                   779.26                   826.66                   852.15                   858.55
12.000                   3.0000                   1.0000                   10000                    4000.0                   30.000                   446.05                   562.79                   935.32                   968.09                   983.53                   986.82                   449.30                   566.54                   937.01                   970.97                   987.19                   990.68                   450.61                   572.43                   990.43                   1023.7                   1036.0                   1037.8                   444.43                   561.69                   994.37                   1033.3                   1046.9                   1048.8                   446.14                   563.93                   1013.9                   1054.1                   1066.7                   1068.0                   451.34                   576.15                   1092.1                   1119.7                   1126.0                   1125.6                   444.80                   561.47                   966.49                   1002.7                   1017.8                   1020.7                   437.75                   552.97                   928.52                   963.36                   979.84                   983.40                   430.39                   542.11                   952.13                   1000.7                   1022.6                   1027.1                   430.74                   534.50                   860.87                   906.04                   928.97                   934.33
12.000                   3.0000                   1.0000                   10000                    4000.0                   35.000                   516.30                   626.07                   951.58                   975.90                   987.36                   989.66                   519.38                   628.81                   957.36                   982.92                   994.96                   997.39                   521.69                   636.61                   1025.7                   1052.5                   1061.1                   1061.7                   514.82                   626.97                   1034.4                   1063.1                   1071.7                   1072.2                   516.47                   629.04                   1055.4                   1083.3                   1090.8                   1090.8                   522.59                   641.96                   1099.4                   1119.6                   1123.9                   1123.1                   514.95                   625.94                   1009.0                   1038.2                   1048.3                   1049.3                   508.09                   617.41                   946.87                   972.67                   984.95                   987.50                   499.66                   608.43                   991.05                   1022.3                   1033.9                   1035.5                   496.69                   595.88                   902.67                   937.81                   955.51                   959.50
12.000                   3.0000                   1.0000                   10000                    4000.0                   40.000                   576.14                   677.16                   977.28                   996.37                   1004.9                   1006.3                   578.96                   679.43                   986.39                   1006.7                   1015.4                   1016.8                   581.78                   687.83                   1052.2                   1073.2                   1079.0                   1078.7                   574.87                   679.35                   1058.2                   1080.0                   1085.9                   1085.6                   576.41                   681.43                   1075.2                   1095.6                   1100.5                   1099.9                   582.81                   693.70                   1100.5                   1116.2                   1119.2                   1118.1                   574.87                   678.15                   1040.8                   1063.9                   1070.7                   1070.7                   568.42                   669.43                   973.31                   993.92                   1003.2                   1004.9                   560.04                   663.56                   1027.3                   1050.3                   1057.4                   1057.7                   554.11                   646.74                   935.54                   964.42                   978.94                   982.09
12.000                   3.0000                   1.0000                   10000                    4000.0                   45.000                   625.42                   718.06                   1007.4                   1023.5                   1029.6                   1030.1                   627.99                   720.42                   1020.4                   1037.8                   1043.7                   1044.0                   630.87                   728.52                   1068.0                   1084.0                   1087.8                   1087.1                   624.35                   720.77                   1069.6                   1086.7                   1090.9                   1090.2                   625.78                   722.86                   1080.3                   1096.1                   1099.6                   1098.7                   631.90                   734.26                   1095.8                   1108.5                   1110.8                   1109.6                   624.35                   719.71                   1060.1                   1077.8                   1082.4                   1081.8                   618.44                   711.05                   1000.8                   1018.2                   1025.1                   1025.8                   611.08                   708.46                   1053.0                   1070.7                   1075.3                   1074.8                   603.03                   689.03                   965.61                   989.27                   1000.9                   1003.2
12.000                   3.0000                   1.0000                   10000                    4000.0                   50.000                   664.57                   752.69                   1040.1                   1054.3                   1058.4                   1058.0                   666.89                   755.75                   1051.1                   1065.1                   1068.8                   1068.2                   669.58                   763.75                   1076.0                   1088.3                   1090.8                   1089.8                   663.65                   755.23                   1072.9                   1086.4                   1089.4                   1088.5                   664.96                   757.56                   1079.2                   1091.8                   1094.3                   1093.3                   670.53                   769.19                   1091.8                   1102.4                   1104.0                   1102.8                   663.70                   754.59                   1068.7                   1082.3                   1085.4                   1084.5                   658.41                   745.42                   1031.5                   1046.8                   1051.6                   1051.4                   652.39                   744.77                   1065.5                   1079.3                   1082.4                   1081.6                   643.65                   725.65                   1024.9                   1043.8                   1050.2                   1050.5
12.000                   3.0000                   1.0000                   10000                    4000.0                   55.000                   696.08                   787.86                   1062.2                   1073.6                   1076.1                   1075.2                   698.13                   791.92                   1071.1                   1081.9                   1084.0                   1082.9                   700.42                   799.41                   1083.9                   1093.4                   1095.0                   1093.7                   695.34                   789.43                   1077.1                   1087.8                   1089.9                   1088.7                   696.48                   792.22                   1081.5                   1091.6                   1093.3                   1092.1                   701.22                   803.93                   1092.4                   1101.0                   1102.2                   1100.8                   695.44                   789.61                   1076.6                   1087.2                   1089.2                   1088.0                   690.95                   779.73                   1054.9                   1067.4                   1070.4                   1069.7                   686.41                   779.66                   1074.0                   1085.0                   1087.1                   1086.0                   678.35                   763.13                   1069.8                   1082.8                   1085.7                   1084.9
12.000                   3.0000                   1.0000                   10000                    4000.0                   60.000                   720.90                   823.01                   1077.0                   1085.8                   1087.2                   1086.0                   722.74                   828.09                   1084.6                   1092.8                   1093.8                   1092.5                   724.74                   834.67                   1091.5                   1098.9                   1099.7                   1098.3                   720.19                   823.56                   1082.6                   1091.1                   1092.3                   1091.0                   721.25                   826.63                   1086.1                   1094.2                   1095.2                   1093.9                   725.42                   838.08                   1095.8                   1102.8                   1103.5                   1102.0                   720.39                   824.49                   1084.1                   1092.4                   1093.5                   1092.2                   716.49                   814.40                   1071.6                   1081.3                   1083.0                   1081.9                   713.15                   814.09                   1080.9                   1089.7                   1091.1                   1089.8                   706.85                   804.17                   1100.5                   1108.7                   1109.6                   1108.1
12.000                   3.0000                   1.0000                   10000                    4000.0                   65.000                   742.28                   857.32                   1087.4                   1094.1                   1094.7                   1093.2                   744.26                   863.28                   1094.4                   1100.5                   1100.9                   1099.4                   746.30                   868.82                   1098.7                   1104.4                   1104.6                   1103.1                   741.46                   857.10                   1089.0                   1095.6                   1096.2                   1094.7                   742.59                   860.27                   1092.1                   1098.4                   1098.9                   1097.4                   746.92                   871.19                   1100.9                   1106.4                   1106.6                   1105.0                   741.80                   858.58                   1091.4                   1097.8                   1098.3                   1096.8                   737.91                   848.72                   1083.3                   1090.6                   1091.5                   1090.1                   735.20                   847.78                   1087.2                   1094.2                   1095.0                   1093.5                   730.78                   847.75                   1120.9                   1126.0                   1125.7                   1123.9
12.000                   3.0000                   1.0000                   10000                    4000.0                   70.000                   766.58                   889.77                   1095.3                   1100.4                   1100.4                   1098.8                   769.34                   896.31                   1102.2                   1106.8                   1106.6                   1105.0                   771.76                   901.01                   1105.5                   1109.9                   1109.6                   1107.9                   765.63                   889.13                   1095.7                   1100.8                   1100.8                   1099.3                   767.07                   892.30                   1098.5                   1103.4                   1103.3                   1101.7                   772.39                   902.59                   1106.7                   1111.0                   1110.7                   1109.0                   766.19                   890.93                   1098.2                   1103.2                   1103.2                   1101.5                   761.43                   881.45                   1091.9                   1097.5                   1097.7                   1096.1                   758.73                   880.02                   1093.4                   1098.9                   1099.1                   1097.6                   756.94                   890.93                   1135.5                   1138.6                   1137.7                   1135.8
12.000                   3.0000                   1.0000                   10000                    4000.0                   75.000                   801.67                   919.56                   1101.8                   1105.7                   1105.4                   1103.7                   805.95                   926.25                   1108.7                   1112.2                   1111.7                   1109.9                   808.87                   930.44                   1111.8                   1115.2                   1114.5                   1112.7                   800.68                   918.91                   1102.2                   1106.1                   1105.8                   1104.1                   802.69                   921.97                   1104.8                   1108.6                   1108.2                   1106.4                   809.46                   931.60                   1112.8                   1116.1                   1115.4                   1113.6                   801.54                   920.73                   1104.6                   1108.5                   1108.0                   1106.3                   794.90                   911.63                   1098.6                   1102.9                   1102.7                   1101.0                   792.00                   910.42                   1099.7                   1104.0                   1103.8                   1102.1                   796.37                   930.73                   1146.4                   1148.6                   1147.3                   1145.2