% Model:              batchmodel_COIL_N_12_COIL_kr_3_COIL_kh_2_FUNZ_freq_6000_FUNZ_I_eff_4000.mph
% Version:            COMSOL 6.0.0.318
% Date:               Feb 8 2022, 20:57
% Table:              Tabella 1 - GRIGLIA_T
% COIL_N                 COIL_kr                  COIL_kh                  FUNZ_freq                FUNZ_I_eff               Time (s)                 Temperatura (degC), Point: (0, 0)Temperatura (degC), Point: (15, 0)Temperatura (degC), Point: (27.483, 0)Temperatura (degC), Point: (28.742, 0)Temperatura (degC), Point: (29.497, 0)Temperatura (degC), Point: (29.99, 0)Temperatura (degC), Point: (0, 62.5)Temperatura (degC), Point: (15, 62.5)Temperatura (degC), Point: (27.483, 62.5)Temperatura (degC), Point: (28.742, 62.5)Temperatura (degC), Point: (29.497, 62.5)Temperatura (degC), Point: (29.99, 62.5)Temperatura (degC), Point: (0, 125)Temperatura (degC), Point: (15, 125)Temperatura (degC), Point: (27.483, 125)Temperatura (degC), Point: (28.742, 125)Temperatura (degC), Point: (29.497, 125)Temperatura (degC), Point: (29.99, 125)Temperatura (degC), Point: (0, 187.5)Temperatura (degC), Point: (15, 187.5)Temperatura (degC), Point: (27.483, 187.5)Temperatura (degC), Point: (28.742, 187.5)Temperatura (degC), Point: (29.497, 187.5)Temperatura (degC), Point: (29.99, 187.5)Temperatura (degC), Point: (0, 250)Temperatura (degC), Point: (15, 250)Temperatura (degC), Point: (27.483, 250)Temperatura (degC), Point: (28.742, 250)Temperatura (degC), Point: (29.497, 250)Temperatura (degC), Point: (29.99, 250)Temperatura (degC), Point: (0, 312.5)Temperatura (degC), Point: (15, 312.5)Temperatura (degC), Point: (27.483, 312.5)Temperatura (degC), Point: (28.742, 312.5)Temperatura (degC), Point: (29.497, 312.5)Temperatura (degC), Point: (29.99, 312.5)Temperatura (degC), Point: (0, 375)Temperatura (degC), Point: (15, 375)Temperatura (degC), Point: (27.483, 375)Temperatura (degC), Point: (28.742, 375)Temperatura (degC), Point: (29.497, 375)Temperatura (degC), Point: (29.99, 375)Temperatura (degC), Point: (0, 437.5)Temperatura (degC), Point: (15, 437.5)Temperatura (degC), Point: (27.483, 437.5)Temperatura (degC), Point: (28.742, 437.5)Temperatura (degC), Point: (29.497, 437.5)Temperatura (degC), Point: (29.99, 437.5)Temperatura (degC), Point: (0, 468.75)Temperatura (degC), Point: (15, 468.75)Temperatura (degC), Point: (27.483, 468.75)Temperatura (degC), Point: (28.742, 468.75)Temperatura (degC), Point: (29.497, 468.75)Temperatura (degC), Point: (29.99, 468.75)Temperatura (degC), Point: (0, 492.19)Temperatura (degC), Point: (15, 492.19)Temperatura (degC), Point: (27.483, 492.19)Temperatura (degC), Point: (28.742, 492.19)Temperatura (degC), Point: (29.497, 492.19)Temperatura (degC), Point: (29.99, 492.19)
12.000                   3.0000                   2.0000                   6000.0                   4000.0                   0.0000                   20.000                   20.000                   20.000                   20.000                   20.065                   20.335                   20.000                   20.000                   20.000                   20.000                   20.067                   20.343                   20.000                   20.000                   20.000                   20.000                   20.068                   20.347                   20.000                   20.000                   20.000                   20.000                   20.066                   20.338                   20.000                   20.000                   20.000                   20.000                   20.066                   20.337                   20.000                   20.000                   20.000                   20.000                   20.068                   20.347                   20.000                   20.000                   20.000                   20.000                   20.067                   20.343                   20.000                   20.000                   20.000                   20.000                   20.064                   20.332                   20.000                   20.000                   20.000                   20.000                   20.063                   20.330                   20.000                   20.000                   20.000                   20.000                   20.049                   20.294
12.000                   3.0000                   2.0000                   6000.0                   4000.0                   5.0000                   28.062                   55.647                   206.55                   233.71                   250.47                   256.32                   28.063                   55.564                   206.04                   234.63                   252.24                   258.52                   28.115                   55.595                   204.10                   232.82                   250.55                   256.68                   28.090                   55.813                   208.84                   235.81                   252.57                   258.61                   28.228                   56.384                   211.35                   238.79                   255.59                   261.63                   28.101                   55.789                   207.77                   236.43                   254.12                   260.37                   28.147                   56.086                   209.90                   238.41                   255.92                   262.33                   27.653                   53.469                   190.67                   215.40                   229.89                   235.06                   27.429                   52.260                   184.98                   208.39                   222.52                   227.64                   38.102                   60.223                   171.91                   191.35                   202.56                   206.88
12.000                   3.0000                   2.0000                   6000.0                   4000.0                   10.000                   75.356                   141.68                   372.65                   410.69                   433.05                   440.12                   75.141                   140.47                   363.00                   401.06                   423.83                   430.81                   74.671                   138.45                   352.59                   388.69                   409.94                   416.54                   75.453                   141.44                   367.22                   403.25                   424.79                   431.76                   76.009                   142.63                   372.35                   410.04                   432.65                   439.86                   75.011                   140.04                   361.73                   398.36                   420.03                   426.81                   75.297                   141.02                   366.29                   403.70                   425.92                   432.74                   71.540                   132.23                   337.29                   371.26                   391.56                   398.20                   69.801                   126.93                   316.65                   346.55                   364.05                   369.81                   90.077                   137.82                   284.72                   306.32                   318.23                   322.61
12.000                   3.0000                   2.0000                   6000.0                   4000.0                   15.000                   152.61                   236.92                   492.01                   531.22                   553.64                   560.88                   151.96                   235.25                   488.83                   529.48                   552.84                   560.29                   150.17                   231.58                   482.31                   523.80                   547.52                   554.92                   152.32                   235.82                   494.23                   537.07                   562.05                   569.65                   153.33                   237.31                   493.07                   535.31                   559.36                   566.66                   151.16                   233.66                   484.24                   524.18                   546.77                   554.02                   151.43                   234.10                   485.51                   525.76                   549.33                   556.86                   143.45                   221.05                   455.03                   493.39                   515.35                   522.32                   138.34                   210.33                   425.89                   459.97                   480.28                   487.15                   152.43                   213.53                   385.32                   411.32                   427.27                   432.76
12.000                   3.0000                   2.0000                   6000.0                   4000.0                   20.000                   235.53                   327.90                   613.25                   664.33                   692.96                   700.74                   234.87                   326.68                   612.31                   664.32                   693.48                   701.39                   232.03                   322.38                   606.86                   658.74                   687.84                   695.79                   234.71                   326.35                   613.45                   665.24                   694.18                   702.03                   235.87                   327.42                   611.34                   662.61                   691.40                   699.22                   233.07                   323.49                   605.02                   656.26                   685.14                   693.02                   232.68                   322.50                   600.73                   650.99                   679.46                   687.23                   221.44                   306.48                   566.73                   612.63                   638.75                   646.09                   212.63                   291.74                   531.77                   573.10                   596.84                   603.67                   219.34                   288.01                   474.86                   503.35                   520.06                   525.17
12.000                   3.0000                   2.0000                   6000.0                   4000.0                   25.000                   315.99                   414.07                   721.52                   780.09                   812.23                   820.32                   315.75                   413.83                   722.42                   780.00                   812.01                   820.40                   312.39                   409.51                   718.05                   776.50                   809.02                   817.68                   314.85                   412.43                   720.13                   778.07                   810.30                   818.66                   315.96                   413.33                   720.33                   778.04                   810.31                   818.63                   313.07                   409.88                   717.38                   775.64                   808.53                   817.08                   311.83                   407.90                   712.91                   769.43                   801.62                   809.98                   298.33                   390.06                   678.27                   731.29                   761.72                   769.94                   286.05                   371.40                   636.72                   683.29                   710.55                   718.09                   287.54                   360.93                   562.47                   593.73                   611.66                   616.97
12.000                   3.0000                   2.0000                   6000.0                   4000.0                   30.000                   390.14                   491.38                   831.84                   904.24                   939.47                   947.35                   390.42                   492.04                   837.30                   910.83                   946.39                   954.26                   387.12                   488.31                   834.72                   909.16                   945.11                   953.08                   389.01                   490.04                   831.40                   904.15                   939.56                   947.48                   389.98                   490.83                   831.66                   904.36                   939.74                   947.64                   387.43                   488.33                   833.44                   907.69                   943.65                   951.65                   385.60                   485.85                   826.96                   900.51                   936.40                   944.46                   370.86                   467.21                   781.91                   848.88                   883.61                   891.82                   355.58                   445.10                   724.17                   778.29                   808.18                   815.80                   350.49                   427.54                   637.51                   670.80                   689.85                   695.13
12.000                   3.0000                   2.0000                   6000.0                   4000.0                   35.000                   459.50                   563.06                   937.12                   1003.6                   1032.2                   1037.5                   460.26                   564.56                   944.45                   1010.2                   1037.7                   1042.6                   457.24                   561.57                   949.96                   1019.1                   1046.7                   1051.4                   458.49                   562.10                   938.14                   1005.1                   1033.6                   1038.9                   459.31                   562.76                   937.94                   1004.6                   1033.1                   1038.4                   457.28                   561.39                   948.65                   1017.8                   1045.6                   1050.4                   455.05                   558.58                   941.36                   1011.0                   1040.0                   1045.2                   439.56                   539.20                   890.65                   961.24                   993.72                   1000.5                   421.59                   513.51                   809.97                   872.96                   904.86                   912.23                   410.93                   489.86                   700.36                   733.40                   752.42                   757.51
12.000                   3.0000                   2.0000                   6000.0                   4000.0                   40.000                   522.72                   624.59                   948.97                   987.44                   1004.5                   1007.6                   523.90                   626.25                   946.59                   984.21                   1001.2                   1004.3                   521.44                   626.14                   1030.5                   1074.2                   1086.0                   1086.4                   521.97                   625.33                   1043.8                   1089.8                   1101.5                   1101.8                   522.60                   624.83                   968.51                   1010.1                   1026.9                   1029.6                   521.24                   625.02                   983.15                   1024.5                   1039.3                   1041.2                   518.80                   622.66                   1012.6                   1058.9                   1072.5                   1073.5                   502.55                   603.00                   987.09                   1047.0                   1066.5                   1068.8                   481.81                   574.24                   883.30                   940.58                   967.92                   973.76                   466.86                   545.37                   744.90                   777.13                   795.70                   800.45
12.000                   3.0000                   2.0000                   6000.0                   4000.0                   45.000                   578.77                   674.45                   954.02                   980.98                   993.15                   995.22                   580.12                   675.42                   950.44                   978.46                   991.50                   993.83                   578.85                   680.87                   1067.8                   1095.9                   1102.4                   1101.6                   578.58                   679.04                   1079.0                   1107.5                   1113.8                   1112.9                   578.79                   675.90                   992.93                   1024.2                   1035.7                   1036.9                   578.26                   677.23                   997.62                   1027.3                   1037.8                   1038.7                   575.93                   676.96                   1060.6                   1090.9                   1098.1                   1097.6                   559.61                   658.63                   1053.4                   1089.4                   1098.1                   1097.8                   536.15                   625.74                   930.17                   979.12                   1002.2                   1006.8                   517.52                   592.88                   784.44                   817.53                   835.72                   840.14
12.000                   3.0000                   2.0000                   6000.0                   4000.0                   50.000                   625.46                   713.89                   972.54                   994.10                   1003.4                   1004.7                   626.69                   713.77                   966.09                   988.88                   999.28                   1000.9                   626.94                   724.52                   1083.9                   1104.3                   1108.3                   1107.0                   625.94                   721.48                   1086.5                   1108.1                   1112.5                   1111.2                   625.64                   716.33                   1017.4                   1043.4                   1051.7                   1052.0                   625.82                   718.02                   1015.9                   1040.3                   1048.2                   1048.5                   623.93                   720.51                   1082.2                   1104.0                   1108.5                   1107.2                   608.77                   704.09                   1061.4                   1087.0                   1093.1                   1092.3                   583.45                   668.52                   968.85                   1012.5                   1031.5                   1034.8                   562.19                   632.90                   823.27                   855.79                   873.16                   877.19
12.000                   3.0000                   2.0000                   6000.0                   4000.0                   55.000                   664.97                   748.12                   995.31                   1013.3                   1020.3                   1020.8                   665.95                   746.85                   985.71                   1004.6                   1012.6                   1013.5                   667.54                   763.18                   1090.9                   1106.4                   1109.0                   1107.3                   665.96                   758.44                   1088.2                   1105.4                   1108.5                   1107.0                   665.25                   751.33                   1037.7                   1059.0                   1065.1                   1064.6                   665.96                   753.49                   1034.3                   1054.5                   1060.4                   1059.9                   664.58                   758.75                   1091.5                   1107.9                   1110.7                   1109.2                   651.06                   742.14                   1063.3                   1083.5                   1088.2                   1087.2                   624.98                   705.50                   1005.9                   1042.9                   1056.3                   1057.7                   601.94                   667.92                   857.11                   887.34                   903.21                   906.71
12.000                   3.0000                   2.0000                   6000.0                   4000.0                   60.000                   698.10                   781.42                   1020.1                   1035.6                   1040.5                   1040.1                   698.79                   779.31                   1008.2                   1024.1                   1030.0                   1030.0                   701.40                   800.63                   1093.6                   1105.7                   1107.2                   1105.4                   699.39                   793.81                   1087.0                   1100.9                   1103.1                   1101.5                   698.42                   785.31                   1053.7                   1070.8                   1075.0                   1074.0                   699.49                   788.13                   1050.9                   1067.3                   1071.3                   1070.3                   698.60                   795.60                   1094.8                   1107.6                   1109.3                   1107.5                   687.02                   777.29                   1064.8                   1081.3                   1085.0                   1083.8                   661.60                   739.02                   1040.5                   1069.1                   1076.9                   1076.6                   637.39                   698.60                   885.28                   912.33                   926.30                   929.22
12.000                   3.0000                   2.0000                   6000.0                   4000.0                   65.000                   723.88                   817.08                   1044.4                   1057.5                   1060.7                   1059.7                   724.29                   814.48                   1033.5                   1047.3                   1051.2                   1050.4                   727.56                   837.80                   1094.5                   1104.1                   1104.9                   1103.0                   725.28                   829.12                   1085.0                   1096.2                   1097.7                   1095.9                   724.18                   820.82                   1064.7                   1078.1                   1080.8                   1079.5                   725.48                   824.53                   1064.4                   1077.1                   1079.6                   1078.2                   724.97                   832.37                   1095.0                   1105.2                   1106.2                   1104.3                   715.57                   812.92                   1067.7                   1081.1                   1083.7                   1082.3                   692.88                   771.89                   1065.6                   1086.5                   1091.0                   1089.8                   668.46                   724.78                   908.84                   932.68                   944.91                   947.32
12.000                   3.0000                   2.0000                   6000.0                   4000.0                   70.000                   746.49                   852.32                   1063.9                   1074.6                   1076.4                   1074.8                   746.75                   849.87                   1056.0                   1067.4                   1069.7                   1068.3                   750.97                   872.27                   1095.0                   1102.7                   1103.0                   1100.9                   748.05                   862.45                   1084.2                   1093.2                   1094.1                   1092.2                   746.78                   855.34                   1073.1                   1083.4                   1085.0                   1083.3                   748.55                   860.00                   1075.4                   1085.0                   1086.3                   1084.5                   748.17                   866.61                   1094.4                   1102.6                   1103.1                   1101.1                   739.62                   847.06                   1071.8                   1082.5                   1084.2                   1082.6                   718.73                   805.58                   1081.8                   1096.8                   1099.3                   1097.7                   694.76                   748.48                   929.00                   949.89                   960.55                   962.51
12.000                   3.0000                   2.0000                   6000.0                   4000.0                   75.000                   767.47                   886.03                   1076.5                   1084.7                   1085.5                   1083.7                   767.75                   884.49                   1073.3                   1081.9                   1082.9                   1081.1                   773.52                   902.99                   1095.7                   1101.9                   1101.8                   1099.7                   769.35                   892.97                   1085.5                   1092.8                   1093.2                   1091.2                   767.80                   887.84                   1079.8                   1087.7                   1088.3                   1086.5                   770.43                   893.45                   1084.1                   1091.4                   1091.8                   1089.8                   769.87                   897.27                   1093.9                   1100.5                   1100.6                   1098.5                   760.15                   878.88                   1077.1                   1085.6                   1086.5                   1084.7                   738.88                   840.72                   1089.1                   1100.6                   1102.1                   1100.3                   715.97                   770.42                   946.13                   964.43                   973.70                   975.26