% Model:              batchmodel_COIL_N_12_COIL_kr_3_COIL_kh_2_FUNZ_freq_10000_FUNZ_I_eff_2500.mph
% Version:            COMSOL 6.0.0.318
% Date:               Feb 8 2022, 20:42
% Table:              Tabella 1 - GRIGLIA_T
% COIL_N                 COIL_kr                  COIL_kh                  FUNZ_freq                FUNZ_I_eff               Time (s)                 Temperatura (degC), Point: (0, 0)Temperatura (degC), Point: (15, 0)Temperatura (degC), Point: (28.051, 0)Temperatura (degC), Point: (29.025, 0)Temperatura (degC), Point: (29.61, 0)Temperatura (degC), Point: (29.99, 0)Temperatura (degC), Point: (0, 62.5)Temperatura (degC), Point: (15, 62.5)Temperatura (degC), Point: (28.051, 62.5)Temperatura (degC), Point: (29.025, 62.5)Temperatura (degC), Point: (29.61, 62.5)Temperatura (degC), Point: (29.99, 62.5)Temperatura (degC), Point: (0, 125)Temperatura (degC), Point: (15, 125)Temperatura (degC), Point: (28.051, 125)Temperatura (degC), Point: (29.025, 125)Temperatura (degC), Point: (29.61, 125)Temperatura (degC), Point: (29.99, 125)Temperatura (degC), Point: (0, 187.5)Temperatura (degC), Point: (15, 187.5)Temperatura (degC), Point: (28.051, 187.5)Temperatura (degC), Point: (29.025, 187.5)Temperatura (degC), Point: (29.61, 187.5)Temperatura (degC), Point: (29.99, 187.5)Temperatura (degC), Point: (0, 250)Temperatura (degC), Point: (15, 250)Temperatura (degC), Point: (28.051, 250)Temperatura (degC), Point: (29.025, 250)Temperatura (degC), Point: (29.61, 250)Temperatura (degC), Point: (29.99, 250)Temperatura (degC), Point: (0, 312.5)Temperatura (degC), Point: (15, 312.5)Temperatura (degC), Point: (28.051, 312.5)Temperatura (degC), Point: (29.025, 312.5)Temperatura (degC), Point: (29.61, 312.5)Temperatura (degC), Point: (29.99, 312.5)Temperatura (degC), Point: (0, 375)Temperatura (degC), Point: (15, 375)Temperatura (degC), Point: (28.051, 375)Temperatura (degC), Point: (29.025, 375)Temperatura (degC), Point: (29.61, 375)Temperatura (degC), Point: (29.99, 375)Temperatura (degC), Point: (0, 437.5)Temperatura (degC), Point: (15, 437.5)Temperatura (degC), Point: (28.051, 437.5)Temperatura (degC), Point: (29.025, 437.5)Temperatura (degC), Point: (29.61, 437.5)Temperatura (degC), Point: (29.99, 437.5)Temperatura (degC), Point: (0, 468.75)Temperatura (degC), Point: (15, 468.75)Temperatura (degC), Point: (28.051, 468.75)Temperatura (degC), Point: (29.025, 468.75)Temperatura (degC), Point: (29.61, 468.75)Temperatura (degC), Point: (29.99, 468.75)Temperatura (degC), Point: (0, 492.19)Temperatura (degC), Point: (15, 492.19)Temperatura (degC), Point: (28.051, 492.19)Temperatura (degC), Point: (29.025, 492.19)Temperatura (degC), Point: (29.61, 492.19)Temperatura (degC), Point: (29.99, 492.19)
12.000                   3.0000                   2.0000                   10000                    2500.0                   0.0000                   20.000                   20.000                   20.000                   20.000                   20.037                   20.300                   20.000                   20.000                   20.000                   20.000                   20.038                   20.307                   20.000                   20.000                   20.000                   20.000                   20.039                   20.311                   20.000                   20.000                   20.000                   20.000                   20.037                   20.303                   20.000                   20.000                   20.000                   20.000                   20.037                   20.302                   20.000                   20.000                   20.000                   20.000                   20.039                   20.311                   20.000                   20.000                   20.000                   20.000                   20.038                   20.307                   20.000                   20.000                   20.000                   20.000                   20.036                   20.297                   20.000                   20.000                   20.000                   20.000                   20.036                   20.296                   20.000                   20.000                   20.000                   20.000                   20.028                   20.265
12.000                   3.0000                   2.0000                   10000                    2500.0                   5.0000                   24.629                   40.601                   138.41                   152.10                   159.73                   162.63                   24.435                   40.005                   136.78                   150.10                   157.55                   160.73                   24.231                   38.700                   122.21                   133.17                   139.47                   141.68                   24.610                   40.932                   143.92                   158.74                   167.30                   170.71                   24.605                   40.771                   140.01                   153.90                   161.98                   164.82                   24.432                   39.744                   130.76                   142.81                   150.11                   152.94                   24.528                   40.358                   135.45                   148.44                   156.20                   159.36                   24.473                   40.083                   136.46                   149.70                   157.55                   160.80                   24.400                   39.524                   131.27                   143.85                   151.08                   154.08                   29.791                   47.306                   132.71                   143.82                   149.63                   152.16
12.000                   3.0000                   2.0000                   10000                    2500.0                   10.000                   54.023                   89.044                   202.94                   215.69                   223.45                   226.55                   52.787                   86.899                   200.46                   213.54                   221.66                   224.77                   52.025                   85.091                   196.56                   209.65                   217.84                   221.14                   53.735                   88.670                   201.94                   214.58                   222.42                   225.46                   53.573                   88.209                   200.69                   213.21                   220.97                   224.09                   53.344                   87.749                   202.10                   215.33                   223.51                   226.75                   53.325                   87.782                   201.70                   214.78                   222.89                   226.02                   53.320                   87.649                   198.99                   211.45                   219.16                   222.18                   52.681                   85.611                   192.87                   204.93                   212.37                   215.35                   59.933                   92.426                   185.24                   194.80                   200.63                   203.03
12.000                   3.0000                   2.0000                   10000                    2500.0                   15.000                   96.658                   140.98                   271.58                   286.56                   295.95                   299.44                   94.801                   138.85                   270.42                   285.47                   294.74                   298.26                   94.066                   138.02                   272.06                   287.75                   297.43                   300.99                   96.124                   140.43                   272.90                   288.37                   297.93                   301.53                   95.856                   139.98                   271.89                   287.30                   296.91                   300.45                   96.257                   141.01                   276.06                   291.83                   301.63                   305.23                   95.720                   140.01                   272.85                   288.22                   297.68                   301.25                   95.308                   138.78                   266.96                   281.75                   290.91                   294.37                   93.627                   135.29                   258.94                   273.24                   282.21                   285.60                   97.740                   136.58                   240.63                   251.69                   258.64                   261.40
12.000                   3.0000                   2.0000                   10000                    2500.0                   20.000                   145.47                   195.34                   340.87                   357.59                   367.76                   371.39                   143.95                   194.28                   342.11                   358.78                   368.53                   372.07                   143.77                   194.70                   347.78                   365.72                   376.59                   380.39                   145.09                   195.25                   343.35                   360.58                   371.03                   374.79                   144.93                   195.20                   344.68                   362.11                   372.89                   376.71                   146.14                   197.40                   350.37                   368.29                   379.35                   383.23                   145.05                   195.54                   344.42                   361.50                   371.79                   375.52                   143.47                   192.52                   336.16                   352.79                   362.96                   366.62                   140.31                   187.31                   325.89                   341.85                   351.66                   355.27                   141.30                   184.59                   299.92                   312.17                   319.61                   322.50
12.000                   3.0000                   2.0000                   10000                    2500.0                   25.000                   196.01                   249.93                   406.78                   424.75                   435.41                   439.06                   195.19                   250.13                   410.48                   428.61                   438.74                   442.19                   195.74                   251.77                   418.56                   437.92                   449.43                   453.29                   195.90                   250.15                   408.04                   426.04                   436.78                   440.48                   196.04                   250.89                   413.27                   432.01                   443.44                   447.34                   197.96                   253.96                   420.09                   439.39                   451.21                   455.16                   196.38                   251.38                   411.71                   429.78                   440.42                   444.14                   193.28                   246.28                   400.51                   418.21                   428.83                   432.51                   188.44                   239.22                   388.11                   405.07                   415.35                   419.03                   186.60                   232.91                   354.93                   367.80                   375.48                   378.39
12.000                   3.0000                   2.0000                   10000                    2500.0                   30.000                   247.25                   304.16                   469.87                   488.84                   499.78                   503.32                   247.30                   305.50                   475.38                   494.60                   504.93                   508.23                   248.76                   308.56                   486.49                   506.97                   518.97                   522.82                   247.54                   304.82                   470.87                   489.64                   500.59                   504.18                   248.14                   306.48                   480.02                   500.11                   512.20                   516.15                   250.58                   310.18                   487.30                   507.79                   520.18                   524.15                   248.56                   306.89                   476.84                   496.05                   507.05                   510.70                   243.69                   299.57                   461.47                   479.76                   490.51                   494.07                   236.98                   290.33                   446.11                   463.64                   474.11                   477.77                   233.21                   281.47                   406.37                   419.27                   426.88                   429.69
12.000                   3.0000                   2.0000                   10000                    2500.0                   35.000                   299.14                   360.42                   547.36                   569.89                   583.03                   587.04                   299.88                   362.44                   553.59                   576.62                   589.65                   593.59                   301.96                   366.02                   563.38                   587.29                   601.27                   605.50                   299.79                   361.48                   549.28                   571.85                   585.06                   589.12                   300.71                   363.37                   556.08                   579.40                   593.20                   597.43                   303.35                   367.21                   564.03                   587.95                   602.11                   606.39                   301.10                   363.77                   555.05                   578.08                   591.43                   595.53                   294.36                   354.20                   534.82                   556.17                   568.73                   572.65                   285.13                   341.57                   511.03                   530.81                   542.54                   546.36                   278.44                   328.18                   458.69                   472.41                   480.60                   483.47
12.000                   3.0000                   2.0000                   10000                    2500.0                   40.000                   350.83                   416.49                   624.37                   650.42                   665.75                   670.30                   352.17                   419.02                   630.67                   657.32                   673.05                   677.64                   354.75                   422.97                   639.52                   667.07                   683.22                   687.90                   351.83                   417.93                   627.35                   653.78                   669.31                   673.86                   353.00                   419.91                   631.84                   658.61                   674.29                   678.86                   355.73                   423.74                   639.76                   667.21                   683.20                   687.83                   353.32                   420.30                   632.41                   659.18                   674.91                   679.51                   344.83                   408.73                   608.78                   633.46                   648.00                   652.35                   333.05                   392.74                   577.45                   599.89                   613.17                   617.21                   323.41                   374.80                   512.78                   527.65                   536.62                   539.59
12.000                   3.0000                   2.0000                   10000                    2500.0                   45.000                   401.79                   471.29                   694.56                   722.99                   739.78                   744.79                   403.55                   474.13                   699.73                   728.48                   745.90                   750.89                   406.50                   478.40                   710.29                   741.10                   759.30                   764.45                   403.09                   473.10                   698.49                   727.69                   744.87                   749.78                   404.41                   475.10                   703.21                   733.22                   750.81                   755.74                   407.09                   478.71                   709.24                   739.62                   757.14                   762.07                   404.64                   475.41                   702.55                   731.82                   749.22                   754.17                   394.73                   462.50                   679.37                   707.06                   723.38                   728.15                   380.54                   443.73                   644.84                   670.26                   685.37                   689.75                   368.25                   421.93                   570.83                   587.41                   597.36                   600.47
12.000                   3.0000                   2.0000                   10000                    2500.0                   50.000                   450.00                   521.51                   744.16                   773.42                   790.42                   795.37                   452.03                   524.57                   750.59                   780.60                   798.07                   802.91                   455.27                   529.24                   765.38                   798.64                   817.55                   822.70                   451.65                   523.95                   753.13                   784.72                   802.73                   807.64                   453.01                   525.88                   760.27                   793.59                   812.48                   817.52                   455.56                   529.25                   764.88                   797.95                   816.57                   821.65                   453.21                   526.27                   758.14                   789.84                   808.11                   813.11                   442.08                   512.14                   731.21                   759.92                   776.86                   781.64                   425.89                   491.49                   697.70                   723.46                   738.87                   743.28                   411.54                   467.13                   621.70                   639.15                   649.71                   652.86
12.000                   3.0000                   2.0000                   10000                    2500.0                   55.000                   495.89                   567.96                   791.50                   821.77                   838.50                   843.17                   498.16                   571.31                   801.86                   833.38                   850.40                   854.90                   501.71                   576.51                   821.85                   857.13                   876.09                   881.00                   497.96                   571.16                   806.85                   840.42                   858.56                   863.25                   499.30                   573.06                   817.45                   853.59                   873.14                   878.04                   501.74                   576.25                   821.91                   857.18                   876.25                   881.22                   499.55                   573.62                   814.49                   848.31                   866.89                   871.72                   487.29                   558.44                   781.53                   812.18                   829.47                   834.12                   469.37                   536.45                   745.12                   772.29                   788.27                   792.72                   453.66                   510.84                   668.42                   686.33                   697.17                   700.32
12.000                   3.0000                   2.0000                   10000                    2500.0                   60.000                   538.80                   610.15                   845.79                   878.16                   895.06                   899.38                   541.26                   613.81                   859.94                   893.59                   910.60                   914.79                   545.11                   619.51                   882.57                   918.94                   937.50                   941.96                   541.30                   614.08                   864.61                   899.64                   917.63                   921.99                   542.57                   615.92                   876.24                   913.57                   932.86                   937.37                   544.92                   619.03                   882.59                   919.05                   937.87                   942.42                   542.95                   616.77                   874.91                   910.29                   928.72                   933.16                   529.75                   600.75                   836.39                   869.85                   887.59                   892.04                   510.43                   577.79                   791.59                   821.49                   838.40                   842.84                   493.73                   551.62                   708.33                   726.28                   737.11                   740.21
12.000                   3.0000                   2.0000                   10000                    2500.0                   65.000                   578.55                   648.70                   913.32                   948.83                   967.02                   971.13                   581.16                   652.61                   926.58                   962.37                   980.52                   984.55                   585.22                   658.51                   945.02                   980.72                   998.47                   1002.3                   581.43                   653.07                   927.75                   963.28                   981.26                   985.24                   582.59                   654.73                   934.12                   969.72                   987.61                   991.53                   584.86                   657.88                   944.25                   980.12                   997.94                   1001.8                   583.16                   655.92                   938.01                   973.71                   991.55                   995.44                   569.31                   639.39                   899.39                   935.10                   953.51                   957.73                   548.94                   615.46                   842.84                   875.72                   893.43                   897.74                   530.94                   588.02                   739.58                   757.40                   768.09                   771.07
12.000                   3.0000                   2.0000                   10000                    2500.0                   70.000                   614.51                   683.42                   958.69                   990.25                   1005.7                   1008.9                   617.18                   687.36                   968.94                   1000.1                   1014.9                   1017.8                   621.25                   692.99                   981.90                   1011.9                   1025.5                   1028.0                   617.56                   687.74                   968.01                   998.81                   1013.6                   1016.5                   618.58                   689.15                   971.94                   1002.6                   1017.0                   1019.8                   620.79                   692.33                   983.07                   1013.7                   1027.3                   1029.8                   619.33                   690.60                   976.48                   1006.9                   1021.0                   1023.7                   605.39                   674.55                   949.20                   982.07                   998.44                   1001.9                   584.38                   649.70                   890.64                   922.98                   939.90                   943.82                   565.17                   620.21                   767.55                   785.89                   796.71                   799.63
12.000                   3.0000                   2.0000                   10000                    2500.0                   75.000                   646.69                   713.52                   984.90                   1011.2                   1023.3                   1025.5                   649.31                   717.45                   992.34                   1017.8                   1029.1                   1031.0                   653.21                   722.76                   1002.5                   1026.7                   1036.6                   1038.0                   649.70                   717.69                   991.48                   1016.9                   1028.2                   1030.1                   650.58                   718.88                   994.96                   1020.2                   1031.2                   1033.0                   652.72                   722.22                   1007.4                   1032.4                   1042.2                   1043.5                   651.45                   720.47                   997.47                   1022.1                   1032.7                   1034.3                   638.00                   705.58                   981.36                   1009.5                   1022.6                   1025.0                   616.65                   680.52                   928.71                   958.59                   973.97                   977.38                   596.39                   649.05                   795.18                   813.75                   824.41                   827.19