% Model:              batchmodel_COIL_N_12_COIL_kr_3_COIL_kh_1_FUNZ_freq_10000_FUNZ_I_eff_2500.mph
% Version:            COMSOL 6.0.0.318
% Date:               Feb 8 2022, 20:05
% Table:              Tabella 1 - GRIGLIA_T
% COIL_N                 COIL_kr                  COIL_kh                  FUNZ_freq                FUNZ_I_eff               Time (s)                 Temperatura (degC), Point: (0, 0)Temperatura (degC), Point: (15, 0)Temperatura (degC), Point: (28.051, 0)Temperatura (degC), Point: (29.025, 0)Temperatura (degC), Point: (29.61, 0)Temperatura (degC), Point: (29.99, 0)Temperatura (degC), Point: (0, 62.5)Temperatura (degC), Point: (15, 62.5)Temperatura (degC), Point: (28.051, 62.5)Temperatura (degC), Point: (29.025, 62.5)Temperatura (degC), Point: (29.61, 62.5)Temperatura (degC), Point: (29.99, 62.5)Temperatura (degC), Point: (0, 125)Temperatura (degC), Point: (15, 125)Temperatura (degC), Point: (28.051, 125)Temperatura (degC), Point: (29.025, 125)Temperatura (degC), Point: (29.61, 125)Temperatura (degC), Point: (29.99, 125)Temperatura (degC), Point: (0, 187.5)Temperatura (degC), Point: (15, 187.5)Temperatura (degC), Point: (28.051, 187.5)Temperatura (degC), Point: (29.025, 187.5)Temperatura (degC), Point: (29.61, 187.5)Temperatura (degC), Point: (29.99, 187.5)Temperatura (degC), Point: (0, 250)Temperatura (degC), Point: (15, 250)Temperatura (degC), Point: (28.051, 250)Temperatura (degC), Point: (29.025, 250)Temperatura (degC), Point: (29.61, 250)Temperatura (degC), Point: (29.99, 250)Temperatura (degC), Point: (0, 312.5)Temperatura (degC), Point: (15, 312.5)Temperatura (degC), Point: (28.051, 312.5)Temperatura (degC), Point: (29.025, 312.5)Temperatura (degC), Point: (29.61, 312.5)Temperatura (degC), Point: (29.99, 312.5)Temperatura (degC), Point: (0, 375)Temperatura (degC), Point: (15, 375)Temperatura (degC), Point: (28.051, 375)Temperatura (degC), Point: (29.025, 375)Temperatura (degC), Point: (29.61, 375)Temperatura (degC), Point: (29.99, 375)Temperatura (degC), Point: (0, 437.5)Temperatura (degC), Point: (15, 437.5)Temperatura (degC), Point: (28.051, 437.5)Temperatura (degC), Point: (29.025, 437.5)Temperatura (degC), Point: (29.61, 437.5)Temperatura (degC), Point: (29.99, 437.5)Temperatura (degC), Point: (0, 468.75)Temperatura (degC), Point: (15, 468.75)Temperatura (degC), Point: (28.051, 468.75)Temperatura (degC), Point: (29.025, 468.75)Temperatura (degC), Point: (29.61, 468.75)Temperatura (degC), Point: (29.99, 468.75)Temperatura (degC), Point: (0, 492.19)Temperatura (degC), Point: (15, 492.19)Temperatura (degC), Point: (28.051, 492.19)Temperatura (degC), Point: (29.025, 492.19)Temperatura (degC), Point: (29.61, 492.19)Temperatura (degC), Point: (29.99, 492.19)
12.000                   3.0000                   1.0000                   10000                    2500.0                   0.0000                   20.000                   20.000                   20.000                   20.000                   20.035                   20.293                   20.000                   20.000                   20.000                   20.000                   20.038                   20.305                   20.000                   20.000                   20.000                   20.000                   20.038                   20.309                   20.000                   20.000                   20.000                   20.000                   20.035                   20.295                   20.000                   20.000                   20.000                   20.000                   20.036                   20.298                   20.000                   20.000                   20.000                   20.000                   20.038                   20.311                   20.000                   20.000                   20.000                   20.000                   20.036                   20.298                   20.000                   20.000                   20.000                   20.000                   20.034                   20.290                   20.000                   20.000                   20.000                   20.000                   20.034                   20.292                   20.000                   20.000                   20.000                   20.000                   20.031                   20.277
12.000                   3.0000                   1.0000                   10000                    2500.0                   5.0000                   23.758                   38.057                   130.19                   142.52                   149.18                   151.55                   23.899                   39.108                   138.28                   150.24                   156.62                   158.78                   24.014                   39.382                   134.43                   146.59                   153.17                   155.60                   23.864                   38.783                   135.07                   147.48                   154.11                   156.51                   23.942                   39.297                   138.57                   150.50                   156.99                   159.37                   24.025                   39.427                   134.61                   147.11                   154.14                   156.91                   23.968                   39.465                   142.40                   157.19                   165.77                   168.93                   23.753                   38.256                   132.71                   144.32                   150.20                   152.27                   23.709                   37.815                   124.72                   135.09                   140.36                   142.11                   30.801                   47.508                   137.47                   147.25                   152.72                   154.90
12.000                   3.0000                   1.0000                   10000                    2500.0                   10.000                   50.346                   84.712                   195.23                   207.72                   215.52                   218.60                   50.814                   86.038                   200.87                   213.95                   222.07                   225.24                   51.643                   87.558                   204.72                   218.15                   226.50                   229.73                   51.287                   86.653                   199.12                   211.71                   219.54                   222.63                   51.581                   87.499                   202.58                   215.50                   223.49                   226.62                   51.893                   88.046                   205.70                   219.20                   227.59                   230.86                   51.692                   87.718                   202.64                   215.51                   223.61                   226.80                   49.784                   83.691                   193.37                   205.65                   213.26                   216.26                   49.893                   83.097                   190.53                   202.66                   210.20                   213.19                   60.634                   95.483                   196.32                   206.84                   213.36                   216.01
12.000                   3.0000                   1.0000                   10000                    2500.0                   15.000                   93.457                   136.15                   261.85                   276.08                   284.87                   288.19                   94.278                   138.00                   267.74                   282.54                   291.70                   295.14                   96.005                   140.60                   273.43                   288.62                   297.99                   301.48                   95.003                   138.29                   265.06                   279.39                   288.25                   291.59                   95.586                   139.48                   268.17                   282.74                   291.75                   295.13                   96.450                   141.23                   274.50                   289.71                   299.12                   302.61                   95.572                   139.42                   267.77                   282.25                   291.16                   294.51                   91.956                   133.94                   257.00                   270.89                   279.50                   282.78                   91.886                   132.72                   252.30                   265.76                   274.12                   277.31                   100.63                   141.09                   248.15                   259.34                   266.24                   268.97
12.000                   3.0000                   1.0000                   10000                    2500.0                   20.000                   142.64                   190.98                   333.62                   350.08                   360.19                   363.81                   143.96                   193.48                   340.32                   357.33                   367.77                   371.50                   146.25                   196.67                   347.31                   364.88                   375.67                   379.51                   144.36                   192.96                   335.53                   351.92                   361.98                   365.59                   145.19                   194.39                   338.83                   355.40                   365.55                   369.24                   146.62                   197.06                   347.55                   365.12                   375.91                   379.70                   144.95                   194.01                   337.79                   354.27                   364.32                   367.93                   140.06                   187.39                   325.90                   341.76                   351.54                   355.12                   138.76                   184.31                   317.24                   332.45                   341.84                   345.28                   144.60                   188.18                   302.41                   314.45                   321.86                   324.67
12.000                   3.0000                   1.0000                   10000                    2500.0                   25.000                   193.88                   247.15                   406.07                   424.65                   435.96                   439.82                   195.75                   250.41                   414.41                   433.60                   445.26                   449.20                   198.42                   254.00                   422.23                   442.08                   454.16                   458.27                   195.61                   248.96                   407.34                   425.77                   436.97                   440.79                   196.66                   250.59                   410.56                   428.94                   440.03                   443.91                   198.54                   253.88                   421.07                   440.87                   452.92                   456.93                   196.17                   249.91                   409.40                   427.83                   438.94                   442.78                   190.16                   242.17                   395.79                   413.47                   424.24                   428.01                   187.02                   236.58                   382.73                   399.60                   409.92                   413.55                   189.96                   236.13                   358.08                   371.03                   378.95                   381.85
12.000                   3.0000                   1.0000                   10000                    2500.0                   30.000                   245.86                   303.49                   477.49                   498.05                   510.46                   514.48                   248.37                   307.68                   488.16                   509.55                   522.41                   526.51                   251.21                   311.43                   496.16                   518.23                   531.53                   535.83                   247.58                   305.25                   478.94                   499.38                   511.68                   515.67                   248.80                   307.07                   482.04                   502.30                   514.27                   518.26                   250.98                   310.75                   493.65                   515.60                   528.83                   533.02                   248.09                   306.15                   480.95                   501.33                   513.43                   517.45                   241.00                   297.20                   465.18                   484.65                   496.35                   500.24                   235.49                   288.58                   446.93                   465.32                   476.48                   480.22                   235.55                   283.94                   412.98                   426.78                   435.18                   438.14
12.000                   3.0000                   1.0000                   10000                    2500.0                   35.000                   297.87                   359.52                   547.78                   570.30                   583.80                   587.95                   301.08                   364.73                   561.22                   584.91                   599.03                   603.29                   303.97                   368.47                   568.81                   593.16                   607.72                   612.19                   299.59                   361.34                   549.76                   572.20                   585.60                   589.73                   300.98                   363.37                   553.17                   575.52                   588.45                   592.52                   303.36                   367.28                   565.38                   589.56                   604.04                   608.38                   300.07                   362.23                   552.00                   574.46                   587.60                   591.78                   291.88                   351.98                   533.79                   555.09                   567.75                   571.73                   283.68                   339.99                   509.73                   529.57                   541.49                   545.32                   280.84                   331.24                   466.67                   481.26                   490.10                   493.09
12.000                   3.0000                   1.0000                   10000                    2500.0                   40.000                   349.24                   414.62                   616.17                   640.71                   655.37                   659.66                   353.08                   420.73                   631.86                   657.94                   673.40                   677.83                   355.98                   424.42                   639.00                   665.73                   681.62                   686.25                   350.93                   416.47                   618.50                   643.00                   657.56                   661.84                   352.48                   418.67                   622.20                   646.76                   660.73                   664.90                   355.02                   422.77                   634.81                   661.29                   677.07                   681.59                   351.39                   417.36                   620.96                   645.59                   659.86                   664.20                   342.17                   405.92                   600.71                   623.88                   637.54                   641.62                   331.39                   390.80                   571.62                   592.97                   605.70                   609.63                   325.75                   378.11                   519.83                   535.20                   544.47                   547.49
12.000                   3.0000                   1.0000                   10000                    2500.0                   45.000                   397.32                   465.03                   674.88                   701.83                   718.02                   722.51                   401.50                   471.39                   690.33                   719.27                   736.45                   741.10                   404.25                   474.85                   696.79                   726.41                   743.95                   748.77                   398.93                   466.78                   676.77                   703.58                   719.61                   724.09                   400.52                   468.96                   680.64                   708.00                   723.45                   727.78                   403.07                   473.04                   692.61                   721.80                   739.16                   743.89                   399.34                   467.63                   679.36                   706.57                   722.44                   726.99                   389.50                   455.65                   659.09                   684.32                   699.24                   703.46                   376.67                   438.51                   628.94                   652.09                   665.85                   669.90                   368.73                   422.81                   570.28                   586.43                   596.12                   599.17
12.000                   3.0000                   1.0000                   10000                    2500.0                   50.000                   445.39                   515.43                   733.59                   762.94                   780.67                   785.37                   449.91                   522.05                   748.81                   780.60                   799.50                   804.37                   452.53                   525.27                   754.58                   787.09                   806.29                   811.29                   446.93                   517.09                   735.04                   764.16                   781.67                   786.35                   448.55                   519.26                   739.07                   769.24                   786.17                   790.65                   451.12                   523.31                   750.40                   782.30                   801.24                   806.18                   447.30                   517.90                   737.77                   767.54                   785.01                   789.78                   436.84                   505.37                   717.48                   744.76                   760.93                   765.29                   421.95                   486.22                   686.27                   711.20                   726.01                   730.17                   411.72                   467.51                   620.73                   637.65                   647.78                   650.84
12.000                   3.0000                   1.0000                   10000                    2500.0                   55.000                   489.20                   560.07                   792.78                   825.38                   844.00                   848.62                   493.87                   566.69                   809.91                   844.50                   863.88                   868.59                   496.34                   569.68                   815.93                   850.98                   870.51                   875.29                   490.62                   561.56                   793.93                   826.26                   844.61                   849.22                   492.26                   563.72                   799.33                   832.79                   850.85                   855.30                   494.85                   567.78                   812.10                   846.75                   866.08                   870.85                   490.96                   562.33                   797.12                   830.07                   848.44                   853.11                   479.91                   549.30                   771.82                   802.46                   819.80                   824.19                   463.26                   528.49                   732.35                   759.69                   775.63                   779.87                   451.32                   508.15                   664.00                   681.53                   692.03                   695.11
12.000                   3.0000                   1.0000                   10000                    2500.0                   60.000                   532.50                   604.04                   852.03                   887.98                   907.40                   911.91                   537.32                   610.63                   871.32                   908.70                   928.42                   932.92                   539.62                   613.39                   877.68                   915.24                   934.96                   939.47                   533.82                   605.35                   852.89                   888.54                   907.66                   912.17                   535.47                   607.51                   859.79                   896.60                   915.76                   920.15                   538.06                   611.58                   874.25                   911.66                   931.24                   935.79                   534.12                   606.09                   856.58                   892.77                   911.96                   916.49                   522.49                   592.56                   825.70                   859.85                   878.35                   882.76                   504.11                   570.12                   777.13                   806.94                   824.02                   828.33                   490.54                   548.33                   706.42                   724.55                   735.43                   738.51
12.000                   3.0000                   1.0000                   10000                    2500.0                   65.000                   570.19                   641.02                   904.11                   938.26                   956.02                   959.99                   574.90                   647.38                   921.19                   955.86                   973.42                   977.22                   577.06                   650.12                   928.83                   963.72                   981.05                   984.72                   571.36                   642.13                   904.92                   938.90                   956.49                   960.45                   572.96                   644.24                   910.84                   945.33                   962.90                   966.77                   575.60                   648.54                   927.38                   962.45                   979.78                   983.49                   571.66                   642.92                   908.66                   942.95                   960.57                   964.51                   559.92                   629.47                   880.65                   914.40                   932.13                   936.21                   540.42                   605.79                   826.65                   857.82                   874.97                   879.15                   525.50                   582.23                   737.13                   755.86                   767.03                   770.12
12.000                   3.0000                   1.0000                   10000                    2500.0                   70.000                   607.26                   677.25                   953.75                   985.80                   1001.8                   1005.1                   611.84                   683.37                   968.09                   999.75                   1015.0                   1018.1                   613.88                   686.12                   977.40                   1009.3                   1024.1                   1026.9                   608.28                   678.18                   954.55                   986.55                   1002.5                   1005.8                   609.83                   680.23                   959.40                   991.32                   1007.1                   1010.4                   612.51                   684.82                   978.77                   1011.2                   1026.1                   1028.9                   608.59                   679.01                   958.11                   990.19                   1006.1                   1009.4                   596.80                   665.73                   933.68                   966.70                   983.47                   987.16                   576.25                   640.93                   875.33                   907.58                   924.66                   928.68                   560.03                   615.60                   767.62                   786.93                   798.36                   801.44
12.000                   3.0000                   1.0000                   10000                    2500.0                   75.000                   637.96                   705.77                   975.61                   1002.8                   1015.6                   1018.1                   642.26                   711.46                   981.84                   1007.6                   1019.6                   1021.8                   644.25                   714.70                   997.09                   1022.8                   1033.7                   1035.4                   638.82                   706.64                   976.83                   1004.1                   1016.9                   1019.3                   640.27                   708.47                   980.11                   1007.2                   1019.8                   1022.2                   643.08                   714.02                   1011.1                   1038.0                   1048.6                   1049.9                   639.13                   707.32                   977.62                   1004.7                   1017.5                   1019.9                   627.94                   695.34                   963.84                   992.77                   1006.7                   1009.5                   607.21                   670.71                   913.21                   943.38                   959.07                   962.62                   590.01                   643.63                   797.43                   817.03                   828.30                   831.23