% Model:              batchmodel_COIL_N_12_COIL_kr_2.25_COIL_kh_1.5_FUNZ_freq_6000_FUNZ_I_eff_2500.mph
% Version:            COMSOL 6.0.0.318
% Date:               Feb 8 2022, 19:20
% Table:              Tabella 1 - GRIGLIA_T
% COIL_N                 COIL_kr                  COIL_kh                  FUNZ_freq                FUNZ_I_eff               Time (s)                 Temperatura (degC), Point: (0, 0)Temperatura (degC), Point: (15, 0)Temperatura (degC), Point: (27.483, 0)Temperatura (degC), Point: (28.742, 0)Temperatura (degC), Point: (29.497, 0)Temperatura (degC), Point: (29.99, 0)Temperatura (degC), Point: (0, 62.5)Temperatura (degC), Point: (15, 62.5)Temperatura (degC), Point: (27.483, 62.5)Temperatura (degC), Point: (28.742, 62.5)Temperatura (degC), Point: (29.497, 62.5)Temperatura (degC), Point: (29.99, 62.5)Temperatura (degC), Point: (0, 125)Temperatura (degC), Point: (15, 125)Temperatura (degC), Point: (27.483, 125)Temperatura (degC), Point: (28.742, 125)Temperatura (degC), Point: (29.497, 125)Temperatura (degC), Point: (29.99, 125)Temperatura (degC), Point: (0, 187.5)Temperatura (degC), Point: (15, 187.5)Temperatura (degC), Point: (27.483, 187.5)Temperatura (degC), Point: (28.742, 187.5)Temperatura (degC), Point: (29.497, 187.5)Temperatura (degC), Point: (29.99, 187.5)Temperatura (degC), Point: (0, 250)Temperatura (degC), Point: (15, 250)Temperatura (degC), Point: (27.483, 250)Temperatura (degC), Point: (28.742, 250)Temperatura (degC), Point: (29.497, 250)Temperatura (degC), Point: (29.99, 250)Temperatura (degC), Point: (0, 312.5)Temperatura (degC), Point: (15, 312.5)Temperatura (degC), Point: (27.483, 312.5)Temperatura (degC), Point: (28.742, 312.5)Temperatura (degC), Point: (29.497, 312.5)Temperatura (degC), Point: (29.99, 312.5)Temperatura (degC), Point: (0, 375)Temperatura (degC), Point: (15, 375)Temperatura (degC), Point: (27.483, 375)Temperatura (degC), Point: (28.742, 375)Temperatura (degC), Point: (29.497, 375)Temperatura (degC), Point: (29.99, 375)Temperatura (degC), Point: (0, 437.5)Temperatura (degC), Point: (15, 437.5)Temperatura (degC), Point: (27.483, 437.5)Temperatura (degC), Point: (28.742, 437.5)Temperatura (degC), Point: (29.497, 437.5)Temperatura (degC), Point: (29.99, 437.5)Temperatura (degC), Point: (0, 468.75)Temperatura (degC), Point: (15, 468.75)Temperatura (degC), Point: (27.483, 468.75)Temperatura (degC), Point: (28.742, 468.75)Temperatura (degC), Point: (29.497, 468.75)Temperatura (degC), Point: (29.99, 468.75)Temperatura (degC), Point: (0, 492.19)Temperatura (degC), Point: (15, 492.19)Temperatura (degC), Point: (27.483, 492.19)Temperatura (degC), Point: (28.742, 492.19)Temperatura (degC), Point: (29.497, 492.19)Temperatura (degC), Point: (29.99, 492.19)
12.000                   2.2500                   1.5000                   6000.0                   2500.0                   0.0000                   20.000                   20.000                   20.000                   20.000                   20.017                   20.182                   20.000                   20.000                   20.000                   20.000                   20.022                   20.205                   20.000                   20.000                   20.000                   20.000                   20.025                   20.217                   20.000                   20.000                   20.000                   20.000                   20.018                   20.188                   20.000                   20.000                   20.000                   20.000                   20.019                   20.191                   20.000                   20.000                   20.000                   20.000                   20.025                   20.219                   20.000                   20.000                   20.000                   20.000                   20.021                   20.201                   20.000                   20.000                   20.000                   20.000                   20.017                   20.182                   20.000                   20.000                   20.000                   20.000                   20.022                   20.206                   20.000                   20.000                   20.000                   20.000                   20.019                   20.190
12.000                   2.2500                   1.5000                   6000.0                   2500.0                   5.0000                   23.363                   34.227                   88.580                   98.225                   104.23                   106.77                   23.570                   35.278                   95.083                   105.88                   112.87                   115.86                   23.656                   35.743                   99.005                   110.85                   118.56                   121.71                   23.445                   34.637                   91.022                   101.09                   107.55                   110.24                   23.454                   34.706                   91.622                   101.76                   108.38                   111.15                   23.651                   35.747                   99.345                   111.26                   118.96                   122.13                   23.528                   35.077                   93.863                   104.42                   111.24                   114.16                   23.316                   34.046                   87.837                   97.319                   103.33                   105.87                   23.589                   35.262                   94.831                   105.55                   112.45                   115.34                   26.007                   37.881                   93.208                   102.99                   109.25                   111.88
12.000                   2.2500                   1.5000                   6000.0                   2500.0                   10.000                   44.351                   69.181                   149.88                   162.37                   169.35                   172.03                   45.263                   70.956                   151.69                   164.34                   172.24                   175.49                   45.815                   72.296                   156.48                   169.80                   178.13                   181.52                   44.794                   70.109                   151.42                   164.29                   171.76                   174.73                   44.722                   69.913                   151.02                   164.01                   171.55                   174.63                   45.786                   72.297                   156.88                   170.27                   178.60                   182.00                   45.051                   70.580                   151.04                   163.44                   170.92                   173.96                   43.967                   68.217                   144.74                   156.47                   163.33                   166.05                   45.162                   70.370                   149.88                   162.45                   170.17                   173.24                   53.081                   77.981                   153.98                   165.99                   173.07                   175.86
12.000                   2.2500                   1.5000                   6000.0                   2500.0                   15.000                   77.440                   111.59                   208.97                   223.13                   231.06                   234.04                   78.548                   113.02                   208.95                   223.28                   232.08                   235.58                   79.495                   114.74                   213.54                   228.41                   237.53                   241.16                   78.083                   112.52                   209.73                   224.26                   232.59                   235.71                   77.872                   112.11                   209.30                   224.14                   232.70                   235.97                   79.396                   114.60                   213.31                   228.23                   237.46                   241.10                   78.049                   112.26                   207.21                   220.98                   229.05                   232.26                   76.240                   109.21                   200.70                   214.02                   221.73                   224.72                   78.109                   111.62                   205.50                   219.73                   228.39                   231.77                   90.439                   122.30                   208.24                   220.86                   228.23                   230.97
12.000                   2.2500                   1.5000                   6000.0                   2500.0                   20.000                   117.58                   157.59                   265.36                   280.46                   289.00                   292.13                   118.57                   158.77                   266.89                   282.85                   292.60                   296.34                   119.74                   160.63                   271.57                   288.08                   298.01                   301.90                   118.26                   158.42                   266.67                   282.62                   291.98                   295.30                   117.97                   158.04                   266.90                   283.25                   292.86                   296.33                   119.52                   160.24                   270.64                   287.29                   297.56                   301.43                   117.59                   157.26                   263.12                   278.15                   286.87                   290.26                   115.22                   153.62                   255.49                   270.17                   278.78                   281.97                   117.43                   156.11                   260.89                   276.59                   286.20                   289.86                   131.74                   167.08                   258.59                   271.73                   279.54                   282.32
12.000                   2.2500                   1.5000                   6000.0                   2500.0                   25.000                   160.57                   204.61                   320.71                   336.94                   346.27                   349.57                   161.45                   205.91                   324.45                   342.00                   352.73                   356.66                   162.83                   207.96                   329.72                   347.91                   358.74                   362.82                   161.30                   205.55                   322.94                   340.21                   350.54                   354.03                   160.94                   205.14                   323.09                   340.65                   351.16                   354.77                   162.32                   207.08                   327.63                   346.00                   357.37                   361.40                   159.73                   203.22                   317.66                   333.92                   343.41                   347.01                   156.74                   198.71                   307.30                   322.87                   332.07                   335.32                   159.11                   201.39                   314.61                   331.51                   341.83                   345.66                   173.78                   211.25                   306.12                   319.53                   327.61                   330.39
12.000                   2.2500                   1.5000                   6000.0                   2500.0                   30.000                   204.02                   250.12                   370.44                   387.04                   396.50                   399.92                   205.12                   252.12                   377.19                   395.73                   407.08                   411.07                   207.02                   255.07                   385.09                   404.64                   416.23                   420.42                   205.02                   251.55                   374.15                   392.18                   403.10                   406.68                   204.63                   251.15                   373.92                   391.92                   402.77                   406.46                   205.90                   253.27                   381.16                   400.68                   412.74                   416.81                   202.42                   248.06                   367.55                   384.65                   394.72                   398.43                   198.52                   242.18                   353.54                   369.22                   378.48                   381.76                   200.82                   245.07                   363.26                   380.83                   391.51                   395.40                   214.39                   252.85                   348.15                   361.34                   369.15                   371.84
12.000                   2.2500                   1.5000                   6000.0                   2500.0                   35.000                   247.47                   295.64                   420.17                   437.13                   446.74                   450.27                   248.78                   298.32                   429.93                   449.45                   461.42                   465.48                   251.22                   302.18                   440.47                   461.37                   473.73                   478.01                   248.74                   297.56                   425.36                   444.15                   455.66                   459.33                   248.32                   297.16                   424.76                   443.18                   454.37                   458.15                   249.48                   299.47                   434.68                   455.37                   468.10                   472.22                   245.12                   292.91                   417.43                   435.38                   446.04                   449.85                   240.29                   285.64                   399.79                   415.57                   424.90                   428.19                   242.53                   288.76                   411.92                   430.15                   441.19                   445.14                   255.01                   294.45                   390.18                   403.15                   410.69                   413.28
12.000                   2.2500                   1.5000                   6000.0                   2500.0                   40.000                   289.61                   338.70                   464.82                   481.86                   491.37                   494.85                   291.52                   342.64                   478.86                   499.23                   511.66                   515.69                   294.66                   347.63                   492.09                   514.04                   527.01                   531.27                   291.53                   341.73                   473.45                   492.88                   504.68                   508.33                   290.92                   341.00                   471.25                   489.84                   500.98                   504.73                   292.15                   343.93                   484.52                   505.97                   518.95                   523.01                   286.76                   335.79                   463.12                   481.35                   492.14                   495.91                   280.91                   327.16                   443.70                   459.68                   468.91                   472.13                   282.74                   329.89                   455.00                   473.34                   484.23                   488.11                   294.46                   334.21                   431.05                   444.07                   451.32                   453.82
12.000                   2.2500                   1.5000                   6000.0                   2500.0                   45.000                   331.63                   381.53                   508.98                   526.08                   535.47                   538.87                   334.17                   386.78                   527.42                   548.62                   561.50                   565.50                   338.03                   392.93                   543.35                   566.33                   579.87                   584.13                   334.23                   385.73                   521.25                   541.31                   553.36                   556.98                   333.43                   384.63                   517.33                   536.05                   547.11                   550.82                   334.72                   388.23                   534.01                   556.18                   569.36                   573.37                   328.29                   378.47                   508.41                   526.87                   537.74                   541.44                   321.41                   368.49                   487.39                   503.57                   512.68                   515.83                   322.81                   370.77                   497.54                   515.94                   526.64                   530.42                   333.80                   373.80                   471.80                   484.91                   491.87                   494.26
12.000                   2.2500                   1.5000                   6000.0                   2500.0                   50.000                   372.39                   424.76                   565.46                   586.34                   598.26                   602.04                   375.57                   430.89                   584.67                   609.03                   623.49                   627.75                   379.91                   437.53                   600.35                   626.45                   641.69                   646.17                   375.50                   429.44                   576.85                   599.75                   613.30                   617.24                   374.60                   428.36                   574.44                   596.71                   609.79                   613.80                   376.14                   432.55                   591.98                   617.54                   632.52                   636.86                   369.03                   422.08                   567.11                   589.41                   602.50                   606.55                   361.10                   410.74                   543.42                   563.09                   574.49                   578.07                   361.20                   411.21                   548.75                   569.77                   582.10                   586.06                   367.77                   409.65                   514.67                   529.36                   537.68                   540.41
12.000                   2.2500                   1.5000                   6000.0                   2500.0                   55.000                   413.07                   468.01                   622.87                   647.80                   662.44                   666.64                   416.88                   475.00                   642.56                   670.26                   686.40                   690.93                   421.68                   482.07                   657.78                   687.16                   704.17                   708.89                   416.66                   473.13                   633.05                   658.93                   674.07                   678.36                   415.68                   472.09                   632.37                   658.45                   673.71                   678.03                   417.47                   476.87                   650.59                   679.73                   696.64                   701.34                   409.70                   465.76                   626.81                   653.23                   668.70                   673.12                   400.72                   453.07                   600.38                   623.78                   637.63                   641.70                   399.46                   451.62                   600.61                   624.44                   638.54                   642.68                   401.35                   445.22                   557.71                   574.07                   583.90                   586.99
12.000                   2.2500                   1.5000                   6000.0                   2500.0                   60.000                   451.59                   508.53                   668.56                   694.61                   710.02                   714.34                   455.85                   515.90                   688.34                   717.75                   735.05                   739.74                   460.82                   522.90                   702.80                   734.41                   752.88                   757.79                   455.37                   513.57                   677.47                   704.45                   720.29                   724.67                   454.41                   512.68                   677.31                   704.53                   720.50                   724.92                   456.47                   517.82                   696.30                   727.41                   745.54                   750.43                   448.47                   506.86                   674.38                   702.51                   719.15                   723.70                   438.79                   493.73                   649.15                   674.34                   689.11                   693.31                   436.00                   490.49                   647.13                   672.71                   687.75                   692.00                   434.34                   480.30                   598.22                   615.56                   625.93                   629.09
12.000                   2.2500                   1.5000                   6000.0                   2500.0                   65.000                   489.53                   548.09                   712.16                   739.33                   755.41                   759.81                   494.23                   555.89                   733.23                   764.61                   783.03                   787.86                   499.34                   562.80                   747.59                   781.62                   801.48                   806.53                   493.46                   553.05                   720.27                   748.53                   765.06                   769.52                   492.54                   552.31                   720.49                   748.93                   765.59                   770.08                   494.89                   557.88                   741.53                   774.85                   794.15                   799.18                   486.72                   547.09                   720.37                   750.38                   768.13                   772.80                   476.37                   533.56                   695.52                   722.35                   737.94                   742.25                   472.07                   528.62                   691.61                   718.84                   734.76                   739.12                   467.16                   515.03                   637.68                   655.85                   666.68                   669.88
12.000                   2.2500                   1.5000                   6000.0                   2500.0                   70.000                   525.09                   583.60                   748.30                   777.44                   794.23                   798.64                   530.28                   592.14                   776.87                   811.94                   831.54                   836.39                   535.44                   599.05                   794.65                   832.36                   853.22                   858.23                   529.07                   588.51                   758.09                   789.04                   806.52                   811.01                   528.23                   587.94                   758.27                   789.21                   806.72                   811.24                   531.02                   594.32                   787.88                   825.04                   845.41                   850.43                   522.80                   583.60                   761.72                   795.09                   814.04                   818.78                   511.90                   569.67                   731.99                   760.20                   776.56                   780.96                   506.23                   563.46                   727.28                   755.88                   772.68                   777.15                   499.23                   548.09                   672.49                   691.04                   702.03                   705.20
12.000                   2.2500                   1.5000                   6000.0                   2500.0                   75.000                   559.31                   617.43                   785.52                   816.48                   833.78                   838.13                   565.01                   626.86                   821.78                   859.58                   879.86                   884.61                   570.20                   633.84                   842.76                   883.00                   904.31                   909.13                   563.31                   622.35                   797.19                   830.36                   848.50                   852.95                   562.57                   621.94                   797.40                   830.36                   848.44                   852.92                   565.86                   629.28                   835.60                   875.55                   896.51                   901.38                   557.63                   618.54                   804.48                   840.51                   860.23                   864.92                   546.22                   604.09                   768.89                   798.69                   815.65                   820.07                   539.30                   596.74                   763.12                   793.43                   810.99                   815.51                   530.49                   579.73                   704.12                   722.86                   733.98                   737.10