% Model:              batchmodel_COIL_N_12_COIL_kr_1.5_COIL_kh_1.5_FUNZ_freq_10000_FUNZ_I_eff_4000.mph
% Version:            COMSOL 6.0.0.318
% Date:               Feb 8 2022, 18:40
% Table:              Tabella 1 - GRIGLIA_T
% COIL_N                 COIL_kr                  COIL_kh                  FUNZ_freq                FUNZ_I_eff               Time (s)                 Temperatura (degC), Point: (0, 0)Temperatura (degC), Point: (15, 0)Temperatura (degC), Point: (28.051, 0)Temperatura (degC), Point: (29.025, 0)Temperatura (degC), Point: (29.61, 0)Temperatura (degC), Point: (29.99, 0)Temperatura (degC), Point: (0, 62.5)Temperatura (degC), Point: (15, 62.5)Temperatura (degC), Point: (28.051, 62.5)Temperatura (degC), Point: (29.025, 62.5)Temperatura (degC), Point: (29.61, 62.5)Temperatura (degC), Point: (29.99, 62.5)Temperatura (degC), Point: (0, 125)Temperatura (degC), Point: (15, 125)Temperatura (degC), Point: (28.051, 125)Temperatura (degC), Point: (29.025, 125)Temperatura (degC), Point: (29.61, 125)Temperatura (degC), Point: (29.99, 125)Temperatura (degC), Point: (0, 187.5)Temperatura (degC), Point: (15, 187.5)Temperatura (degC), Point: (28.051, 187.5)Temperatura (degC), Point: (29.025, 187.5)Temperatura (degC), Point: (29.61, 187.5)Temperatura (degC), Point: (29.99, 187.5)Temperatura (degC), Point: (0, 250)Temperatura (degC), Point: (15, 250)Temperatura (degC), Point: (28.051, 250)Temperatura (degC), Point: (29.025, 250)Temperatura (degC), Point: (29.61, 250)Temperatura (degC), Point: (29.99, 250)Temperatura (degC), Point: (0, 312.5)Temperatura (degC), Point: (15, 312.5)Temperatura (degC), Point: (28.051, 312.5)Temperatura (degC), Point: (29.025, 312.5)Temperatura (degC), Point: (29.61, 312.5)Temperatura (degC), Point: (29.99, 312.5)Temperatura (degC), Point: (0, 375)Temperatura (degC), Point: (15, 375)Temperatura (degC), Point: (28.051, 375)Temperatura (degC), Point: (29.025, 375)Temperatura (degC), Point: (29.61, 375)Temperatura (degC), Point: (29.99, 375)Temperatura (degC), Point: (0, 437.5)Temperatura (degC), Point: (15, 437.5)Temperatura (degC), Point: (28.051, 437.5)Temperatura (degC), Point: (29.025, 437.5)Temperatura (degC), Point: (29.61, 437.5)Temperatura (degC), Point: (29.99, 437.5)Temperatura (degC), Point: (0, 468.75)Temperatura (degC), Point: (15, 468.75)Temperatura (degC), Point: (28.051, 468.75)Temperatura (degC), Point: (29.025, 468.75)Temperatura (degC), Point: (29.61, 468.75)Temperatura (degC), Point: (29.99, 468.75)Temperatura (degC), Point: (0, 492.19)Temperatura (degC), Point: (15, 492.19)Temperatura (degC), Point: (28.051, 492.19)Temperatura (degC), Point: (29.025, 492.19)Temperatura (degC), Point: (29.61, 492.19)Temperatura (degC), Point: (29.99, 492.19)
12.000                   1.5000                   1.5000                   10000                    4000.0                   0.0000                   20.000                   20.000                   20.000                   20.000                   20.047                   20.344                   20.000                   20.000                   20.000                   20.000                   20.149                   20.627                   20.000                   20.000                   20.000                   20.000                   20.233                   20.817                   20.000                   20.000                   20.000                   20.000                   20.061                   20.393                   20.000                   20.000                   20.000                   20.000                   20.075                   20.428                   20.000                   20.000                   20.000                   20.001                   20.244                   20.842                   20.000                   20.000                   20.000                   20.000                   20.123                   20.556                   20.000                   20.000                   20.000                   20.000                   20.047                   20.344                   20.000                   20.000                   20.000                   20.000                   20.168                   20.672                   20.000                   20.000                   20.000                   20.000                   20.237                   20.827
12.000                   1.5000                   1.5000                   10000                    4000.0                   5.0000                   27.517                   51.747                   187.14                   206.78                   218.63                   223.20                   31.718                   72.700                   322.87                   362.75                   386.93                   394.64                   33.924                   83.692                   404.85                   460.01                   491.78                   501.06                   28.531                   56.801                   215.50                   237.98                   251.79                   256.93                   29.098                   59.691                   235.68                   261.55                   277.48                   283.11                   34.234                   85.261                   416.82                   474.17                   506.90                   516.44                   30.947                   68.820                   294.92                   330.19                   351.63                   358.52                   27.618                   52.373                   188.99                   208.21                   220.15                   224.73                   32.499                   75.856                   343.22                   386.41                   412.39                   420.50                   43.066                   99.615                   418.57                   471.70                   502.59                   511.57
12.000                   1.5000                   1.5000                   10000                    4000.0                   10.000                   76.167                   139.11                   377.66                   410.60                   429.84                   435.94                   97.797                   190.49                   582.28                   642.83                   675.49                   684.33                   108.31                   214.65                   676.59                   755.54                   798.38                   809.47                   81.414                   151.18                   420.43                   456.86                   477.85                   484.29                   84.392                   158.52                   448.58                   487.72                   510.83                   517.80                   109.79                   218.13                   693.98                   777.78                   822.15                   833.60                   93.615                   180.34                   541.07                   594.66                   625.19                   633.63                   76.769                   140.29                   376.20                   407.14                   425.14                   430.81                   101.92                   197.57                   598.59                   659.95                   694.19                   703.64                   134.45                   247.72                   683.41                   752.83                   791.61                   801.97
12.000                   1.5000                   1.5000                   10000                    4000.0                   15.000                   161.81                   248.56                   526.94                   559.84                   578.52                   584.08                   197.92                   314.08                   720.88                   777.43                   808.26                   816.20                   215.10                   347.15                   900.90                   976.89                   1007.5                   1013.6                   170.47                   264.01                   571.33                   608.26                   629.00                   634.98                   175.18                   272.59                   596.90                   636.61                   658.79                   665.06                   217.32                   352.38                   1051.7                   1126.5                   1146.6                   1148.7                   190.64                   300.83                   681.37                   731.17                   758.62                   765.98                   162.60                   249.44                   526.31                   558.97                   577.55                   583.08                   204.88                   323.27                   742.84                   803.21                   835.23                   843.27                   250.04                   383.70                   869.86                   933.87                   962.49                   968.91
12.000                   1.5000                   1.5000                   10000                    4000.0                   20.000                   255.81                   349.17                   627.69                   660.44                   679.01                   684.29                   298.86                   418.61                   794.11                   845.75                   872.52                   879.12                   321.57                   464.98                   1073.1                   1115.7                   1126.8                   1127.3                   265.81                   364.88                   663.42                   699.35                   719.59                   725.22                   270.97                   373.24                   683.24                   721.12                   742.54                   748.40                   324.51                   474.13                   1173.5                   1203.4                   1209.7                   1208.9                   289.66                   403.36                   753.55                   800.76                   826.41                   832.97                   256.33                   349.48                   626.26                   658.66                   677.05                   682.28                   307.58                   430.37                   818.85                   869.43                   895.01                   901.17                   356.07                   496.52                   1015.8                   1056.6                   1069.2                   1070.4
12.000                   1.5000                   1.5000                   10000                    4000.0                   25.000                   341.81                   434.30                   701.42                   733.19                   751.41                   756.42                   388.66                   504.76                   862.72                   906.99                   929.20                   934.38                   416.15                   561.01                   1142.5                   1166.0                   1170.9                   1170.0                   352.21                   449.09                   729.86                   764.72                   784.64                   789.98                   357.54                   457.09                   747.71                   785.23                   806.37                   811.90                   419.85                   572.07                   1182.2                   1200.2                   1203.3                   1201.9                   378.11                   487.85                   818.64                   862.90                   885.95                   891.60                   341.98                   434.15                   699.66                   731.11                   749.15                   754.12                   398.51                   518.60                   899.77                   941.55                   961.58                   966.08                   449.05                   589.22                   1113.1                   1135.8                   1140.8                   1139.9
12.000                   1.5000                   1.5000                   10000                    4000.0                   30.000                   416.88                   505.06                   752.86                   783.87                   801.61                   806.31                   465.95                   577.28                   929.86                   964.73                   981.08                   984.59                   496.90                   638.22                   1163.8                   1179.0                   1181.5                   1180.0                   427.34                   519.23                   782.31                   816.99                   836.00                   840.85                   432.84                   527.24                   801.38                   837.81                   857.34                   862.24                   501.14                   649.36                   1180.1                   1192.6                   1194.1                   1192.5                   454.48                   558.97                   873.91                   911.38                   930.35                   934.75                   416.80                   504.63                   750.78                   781.36                   798.90                   803.55                   476.45                   592.15                   983.72                   1017.6                   1030.7                   1032.8                   529.52                   667.65                   1166.4                   1178.7                   1180.2                   1178.6
12.000                   1.5000                   1.5000                   10000                    4000.0                   35.000                   478.87                   561.68                   795.70                   826.03                   842.69                   846.93                   530.41                   636.55                   1002.5                   1032.0                   1042.8                   1044.2                   563.28                   698.43                   1170.0                   1181.0                   1182.2                   1180.5                   489.61                   575.71                   825.83                   857.86                   875.01                   879.25                   495.47                   584.03                   844.84                   877.40                   894.67                   898.85                   567.75                   709.16                   1178.9                   1188.4                   1189.2                   1187.3                   518.23                   617.05                   925.30                   954.91                   969.49                   972.71                   478.64                   561.10                   792.95                   822.89                   839.37                   843.59                   541.24                   651.81                   1057.5                   1083.3                   1090.8                   1090.9                   596.85                   735.08                   1197.9                   1206.3                   1206.6                   1204.6
12.000                   1.5000                   1.5000                   10000                    4000.0                   40.000                   532.86                   609.35                   833.52                   861.77                   877.00                   880.76                   586.03                   687.31                   1063.0                   1085.3                   1091.5                   1091.3                   619.15                   749.82                   1174.0                   1182.3                   1182.8                   1181.0                   543.94                   623.51                   862.15                   890.69                   905.84                   909.45                   550.14                   632.33                   881.43                   909.66                   924.38                   927.82                   623.63                   760.91                   1180.5                   1188.0                   1188.2                   1186.3                   573.56                   667.05                   978.67                   1003.7                   1014.3                   1016.1                   532.54                   608.69                   830.22                   858.11                   873.19                   876.93                   596.85                   702.84                   1104.6                   1122.4                   1126.3                   1125.4                   653.79                   805.03                   1224.3                   1230.4                   1230.0                   1227.8
12.000                   1.5000                   1.5000                   10000                    4000.0                   45.000                   579.86                   649.86                   865.39                   890.98                   904.67                   907.93                   633.34                   730.99                   1100.8                   1116.5                   1119.8                   1118.8                   665.58                   799.26                   1178.7                   1185.2                   1185.2                   1183.2                   591.09                   664.35                   892.75                   917.48                   930.44                   933.42                   597.50                   673.77                   913.37                   936.89                   948.99                   951.68                   669.91                   810.93                   1184.7                   1190.8                   1190.5                   1188.5                   620.96                   709.92                   1031.1                   1052.5                   1059.5                   1059.8                   579.49                   649.17                   861.93                   887.21                   900.78                   904.02                   644.04                   747.99                   1130.0                   1142.2                   1144.1                   1142.7                   699.85                   878.55                   1249.2                   1253.9                   1253.1                   1250.7
12.000                   1.5000                   1.5000                   10000                    4000.0                   50.000                   620.31                   684.14                   891.51                   914.19                   926.18                   928.95                   673.07                   772.59                   1122.6                   1133.6                   1135.2                   1133.8                   702.76                   848.02                   1184.8                   1190.1                   1189.6                   1187.6                   631.57                   699.03                   918.94                   939.70                   950.47                   952.84                   638.11                   709.10                   942.69                   961.74                   971.30                   973.26                   706.58                   859.46                   1191.0                   1196.0                   1195.5                   1193.4                   661.14                   748.00                   1071.8                   1088.2                   1092.3                   1091.6                   619.91                   683.50                   888.26                   910.72                   922.62                   925.37                   683.42                   793.68                   1145.2                   1153.8                   1154.6                   1152.9                   735.39                   948.18                   1274.0                   1277.7                   1276.4                   1273.9
12.000                   1.5000                   1.5000                   10000                    4000.0                   55.000                   654.73                   712.61                   912.36                   931.95                   942.26                   944.55                   705.14                   815.78                   1135.9                   1143.8                   1144.4                   1142.8                   730.73                   893.73                   1192.1                   1196.4                   1195.6                   1193.5                   665.88                   728.33                   942.15                   959.18                   967.85                   969.61                   672.41                   739.81                   971.61                   987.14                   994.42                   995.67                   734.18                   904.49                   1198.9                   1203.0                   1202.2                   1200.0                   694.35                   786.57                   1098.3                   1110.1                   1112.3                   1111.1                   654.36                   712.05                   909.63                   929.04                   939.26                   941.54                   714.84                   841.61                   1156.5                   1162.7                   1162.7                   1160.9                   779.46                   1011.1                   1298.9                   1301.7                   1300.1                   1297.4
12.000                   1.5000                   1.5000                   10000                    4000.0                   60.000                   679.78                   735.65                   927.50                   944.29                   953.09                   954.94                   731.13                   857.21                   1144.3                   1150.5                   1150.5                   1148.7                   766.62                   933.63                   1200.9                   1204.5                   1203.5                   1201.3                   690.59                   756.15                   963.68                   978.00                   984.93                   986.12                   696.96                   771.30                   999.30                   1013.2                   1018.9                   1019.4                   771.73                   943.77                   1208.4                   1211.9                   1210.8                   1208.6                   718.97                   826.42                   1112.1                   1121.1                   1122.3                   1120.8                   679.49                   735.27                   925.60                   942.21                   950.91                   952.75                   747.92                   888.18                   1166.7                   1171.5                   1171.0                   1169.0                   854.29                   1064.3                   1322.7                   1324.8                   1322.8                   1320.0
12.000                   1.5000                   1.5000                   10000                    4000.0                   65.000                   703.94                   758.20                   942.11                   956.14                   963.43                   964.86                   756.58                   898.43                   1152.3                   1156.8                   1156.3                   1154.3                   803.41                   972.97                   1209.9                   1212.8                   1211.6                   1209.3                   714.39                   783.87                   985.07                   996.78                   1002.0                   1002.6                   720.59                   802.91                   1026.9                   1039.3                   1043.5                   1043.3                   810.38                   982.50                   1218.0                   1220.9                   1219.6                   1217.3                   742.80                   866.39                   1124.7                   1131.1                   1131.4                   1129.7                   703.75                   758.01                   941.06                   954.92                   962.11                   963.52                   781.26                   934.57                   1176.9                   1180.3                   1179.4                   1177.2                   932.12                   1116.6                   1346.3                   1347.7                   1345.4                   1342.4
