% Model:              batchmodel_COIL_N_12_COIL_kr_2.25_COIL_kh_2_FUNZ_freq_6000_FUNZ_I_eff_2500.mph
% Version:            COMSOL 6.0.0.318
% Date:               Feb 8 2022, 19:39
% Table:              Tabella 1 - GRIGLIA_T
% COIL_N                 COIL_kr                  COIL_kh                  FUNZ_freq                FUNZ_I_eff               Time (s)                 Temperatura (degC), Point: (0, 0)Temperatura (degC), Point: (15, 0)Temperatura (degC), Point: (27.483, 0)Temperatura (degC), Point: (28.742, 0)Temperatura (degC), Point: (29.497, 0)Temperatura (degC), Point: (29.99, 0)Temperatura (degC), Point: (0, 62.5)Temperatura (degC), Point: (15, 62.5)Temperatura (degC), Point: (27.483, 62.5)Temperatura (degC), Point: (28.742, 62.5)Temperatura (degC), Point: (29.497, 62.5)Temperatura (degC), Point: (29.99, 62.5)Temperatura (degC), Point: (0, 125)Temperatura (degC), Point: (15, 125)Temperatura (degC), Point: (27.483, 125)Temperatura (degC), Point: (28.742, 125)Temperatura (degC), Point: (29.497, 125)Temperatura (degC), Point: (29.99, 125)Temperatura (degC), Point: (0, 187.5)Temperatura (degC), Point: (15, 187.5)Temperatura (degC), Point: (27.483, 187.5)Temperatura (degC), Point: (28.742, 187.5)Temperatura (degC), Point: (29.497, 187.5)Temperatura (degC), Point: (29.99, 187.5)Temperatura (degC), Point: (0, 250)Temperatura (degC), Point: (15, 250)Temperatura (degC), Point: (27.483, 250)Temperatura (degC), Point: (28.742, 250)Temperatura (degC), Point: (29.497, 250)Temperatura (degC), Point: (29.99, 250)Temperatura (degC), Point: (0, 312.5)Temperatura (degC), Point: (15, 312.5)Temperatura (degC), Point: (27.483, 312.5)Temperatura (degC), Point: (28.742, 312.5)Temperatura (degC), Point: (29.497, 312.5)Temperatura (degC), Point: (29.99, 312.5)Temperatura (degC), Point: (0, 375)Temperatura (degC), Point: (15, 375)Temperatura (degC), Point: (27.483, 375)Temperatura (degC), Point: (28.742, 375)Temperatura (degC), Point: (29.497, 375)Temperatura (degC), Point: (29.99, 375)Temperatura (degC), Point: (0, 437.5)Temperatura (degC), Point: (15, 437.5)Temperatura (degC), Point: (27.483, 437.5)Temperatura (degC), Point: (28.742, 437.5)Temperatura (degC), Point: (29.497, 437.5)Temperatura (degC), Point: (29.99, 437.5)Temperatura (degC), Point: (0, 468.75)Temperatura (degC), Point: (15, 468.75)Temperatura (degC), Point: (27.483, 468.75)Temperatura (degC), Point: (28.742, 468.75)Temperatura (degC), Point: (29.497, 468.75)Temperatura (degC), Point: (29.99, 468.75)Temperatura (degC), Point: (0, 492.19)Temperatura (degC), Point: (15, 492.19)Temperatura (degC), Point: (27.483, 492.19)Temperatura (degC), Point: (28.742, 492.19)Temperatura (degC), Point: (29.497, 492.19)Temperatura (degC), Point: (29.99, 492.19)
12.000                   2.2500                   2.0000                   6000.0                   2500.0                   0.0000                   20.000                   20.000                   20.000                   20.000                   20.018                   20.188                   20.000                   20.000                   20.000                   20.000                   20.022                   20.205                   20.000                   20.000                   20.000                   20.000                   20.024                   20.215                   20.000                   20.000                   20.000                   20.000                   20.019                   20.194                   20.000                   20.000                   20.000                   20.000                   20.019                   20.193                   20.000                   20.000                   20.000                   20.000                   20.024                   20.215                   20.000                   20.000                   20.000                   20.000                   20.022                   20.206                   20.000                   20.000                   20.000                   20.000                   20.018                   20.187                   20.000                   20.000                   20.000                   20.000                   20.023                   20.210                   20.000                   20.000                   20.000                   20.000                   20.017                   20.180
12.000                   2.2500                   2.0000                   6000.0                   2500.0                   5.0000                   23.814                   35.328                   91.938                   101.99                   108.44                   111.23                   23.814                   35.356                   94.565                   105.54                   112.62                   115.63                   23.804                   35.452                   96.507                   108.12                   115.60                   118.79                   23.833                   35.442                   93.307                   103.69                   110.35                   113.23                   23.860                   35.582                   93.738                   104.08                   110.71                   113.58                   23.782                   35.373                   96.141                   107.62                   115.03                   118.19                   23.792                   35.342                   94.801                   105.84                   112.98                   116.02                   24.044                   36.258                   94.873                   105.01                   111.47                   114.28                   23.776                   35.100                   93.934                   105.02                   112.22                   115.30                   25.941                   37.992                   90.596                   99.563                   105.30                   107.85
12.000                   2.2500                   2.0000                   6000.0                   2500.0                   10.000                   42.522                   67.525                   142.82                   154.15                   161.30                   164.25                   43.228                   69.526                   151.52                   164.11                   171.92                   175.08                   43.477                   70.565                   157.10                   170.38                   178.36                   181.71                   42.900                   68.566                   147.35                   159.48                   167.05                   170.16                   42.885                   68.466                   146.55                   158.54                   165.69                   168.68                   43.355                   70.343                   157.16                   171.00                   179.50                   182.97                   43.139                   69.465                   151.69                   164.35                   172.30                   175.44                   43.363                   69.169                   145.85                   157.35                   164.62                   167.59                   42.966                   68.895                   151.44                   164.42                   172.31                   175.54                   44.847                   69.066                   136.75                   146.46                   152.59                   155.20
12.000                   2.2500                   2.0000                   6000.0                   2500.0                   15.000                   74.739                   106.96                   193.97                   206.68                   214.57                   217.69                   77.058                   111.57                   206.59                   220.63                   229.22                   232.61                   78.022                   114.00                   216.20                   231.71                   240.87                   244.55                   75.986                   109.44                   201.21                   214.93                   223.02                   226.31                   75.808                   109.06                   200.02                   213.37                   221.16                   224.29                   77.789                   113.75                   217.00                   232.99                   242.35                   246.02                   76.768                   111.13                   205.70                   219.67                   228.31                   231.60                   76.133                   109.19                   198.19                   211.12                   219.13                   222.29                   75.796                   109.55                   204.63                   219.13                   227.64                   231.02                   76.038                   105.99                   181.43                   191.91                   198.42                   201.08
12.000                   2.2500                   2.0000                   6000.0                   2500.0                   20.000                   112.57                   149.53                   246.41                   260.49                   269.17                   272.47                   116.75                   156.70                   263.17                   278.91                   288.54                   292.17                   118.53                   160.38                   275.29                   292.88                   303.44                   307.36                   114.84                   153.37                   255.04                   270.01                   278.53                   281.99                   114.48                   152.80                   253.84                   268.22                   276.49                   279.79                   118.12                   159.92                   275.31                   292.82                   302.94                   306.74                   116.07                   155.57                   260.79                   276.27                   285.75                   289.25                   114.31                   152.09                   250.80                   264.96                   273.65                   276.96                   113.73                   152.40                   258.02                   274.21                   283.67                   287.27                   111.90                   145.09                   226.21                   237.36                   244.22                   246.94
12.000                   2.2500                   2.0000                   6000.0                   2500.0                   25.000                   154.60                   195.10                   301.59                   317.19                   326.76                   330.23                   160.11                   203.82                   320.40                   337.78                   348.40                   352.19                   162.64                   208.52                   333.89                   353.00                   364.37                   368.42                   157.61                   199.80                   311.18                   327.62                   336.94                   340.61                   157.13                   199.12                   309.91                   325.67                   334.81                   338.31                   161.95                   207.65                   332.86                   351.75                   362.71                   366.65                   159.11                   202.34                   318.04                   335.30                   345.82                   349.53                   156.19                   197.43                   305.48                   321.08                   330.59                   334.06                   154.62                   196.62                   311.60                   329.41                   339.90                   343.69                   150.44                   185.69                   271.60                   283.42                   290.67                   293.46
12.000                   2.2500                   2.0000                   6000.0                   2500.0                   30.000                   198.43                   242.09                   358.31                   375.52                   386.05                   389.69                   204.91                   251.71                   377.65                   396.56                   408.04                   411.93                   208.12                   257.30                   392.32                   412.67                   424.53                   428.65                   202.00                   247.32                   368.72                   386.83                   397.17                   401.07                   201.43                   246.59                   367.40                   384.86                   395.16                   398.85                   207.10                   255.93                   390.22                   410.52                   422.34                   426.39                   203.67                   250.15                   376.25                   395.38                   407.03                   410.93                   199.61                   243.88                   361.37                   378.53                   388.95                   392.60                   196.64                   241.35                   365.03                   384.32                   395.78                   399.71                   189.98                   226.91                   317.37                   329.88                   337.56                   340.42
12.000                   2.2500                   2.0000                   6000.0                   2500.0                   35.000                   242.48                   289.15                   414.81                   433.62                   445.05                   448.84                   249.28                   298.66                   432.09                   452.17                   464.25                   468.20                   253.00                   304.76                   446.46                   467.50                   479.43                   483.56                   246.32                   294.49                   424.85                   444.39                   455.64                   459.69                   245.64                   293.64                   423.31                   442.16                   453.41                   457.26                   251.73                   303.09                   444.13                   465.41                   477.80                   481.90                   248.01                   297.34                   432.43                   453.17                   465.78                   469.81                   243.03                   290.15                   416.83                   435.58                   446.94                   450.75                   238.31                   285.31                   415.35                   435.46                   447.43                   451.42                   229.40                   267.94                   362.88                   376.08                   384.17                   387.08
12.000                   2.2500                   2.0000                   6000.0                   2500.0                   40.000                   286.68                   336.28                   471.17                   491.57                   503.89                   507.80                   293.38                   345.05                   484.81                   505.83                   518.34                   522.32                   297.49                   351.39                   497.97                   519.35                   531.11                   535.17                   290.60                   341.45                   480.10                   500.93                   513.03                   517.18                   289.79                   340.44                   478.23                   498.30                   510.37                   514.36                   296.03                   349.54                   495.94                   517.91                   530.70                   534.81                   292.21                   344.16                   487.38                   509.54                   523.01                   527.14                   286.45                   336.31                   472.01                   492.39                   504.71                   508.67                   279.77                   328.78                   463.76                   484.29                   496.48                   500.47                   268.74                   308.84                   408.24                   422.12                   430.60                   433.56
12.000                   2.2500                   2.0000                   6000.0                   2500.0                   45.000                   330.32                   382.62                   526.43                   548.38                   561.57                   565.59                   336.34                   389.89                   535.06                   556.81                   569.58                   573.58                   340.77                   396.46                   547.84                   569.75                   581.38                   585.36                   333.99                   387.11                   532.59                   554.41                   567.12                   571.29                   333.16                   386.18                   531.49                   552.62                   565.36                   569.46                   339.03                   394.16                   544.51                   566.82                   579.65                   583.70                   335.42                   389.58                   539.80                   563.19                   577.33                   581.51                   329.03                   381.27                   524.82                   546.63                   559.78                   563.81                   320.27                   370.95                   509.82                   530.60                   542.72                   546.63                   307.39                   348.93                   452.38                   466.90                   475.71                   478.69
12.000                   2.2500                   2.0000                   6000.0                   2500.0                   50.000                   373.66                   428.55                   581.09                   604.59                   618.63                   622.73                   378.68                   433.89                   583.97                   606.35                   619.27                   623.29                   383.40                   440.68                   596.83                   619.36                   630.89                   634.79                   376.88                   432.06                   583.60                   606.22                   619.44                   623.59                   376.10                   431.34                   583.84                   605.96                   619.29                   623.48                   381.33                   437.79                   591.34                   613.79                   626.45                   630.42                   378.10                   434.26                   590.87                   615.37                   630.08                   634.28                   371.16                   425.59                   576.37                   599.49                   613.38                   617.46                   360.25                   412.41                   554.63                   575.55                   587.45                   591.23                   345.65                   388.58                   495.86                   510.98                   520.11                   523.11
12.000                   2.2500                   2.0000                   6000.0                   2500.0                   55.000                   414.88                   472.03                   632.19                   657.56                   672.58                   676.82                   418.93                   476.18                   634.94                   659.82                   674.27                   678.52                   423.68                   482.74                   646.58                   671.86                   685.57                   689.77                   417.61                   474.86                   634.00                   658.75                   673.25                   677.52                   416.88                   474.23                   634.28                   658.72                   673.30                   677.62                   421.46                   479.74                   641.28                   666.37                   680.76                   684.99                   418.62                   476.82                   640.86                   667.32                   683.08                   687.46                   411.30                   467.87                   626.03                   650.97                   665.77                   669.96                   398.64                   452.77                   603.29                   626.45                   639.69                   643.67                   382.33                   426.76                   538.40                   554.24                   563.75                   566.78
12.000                   2.2500                   2.0000                   6000.0                   2500.0                   60.000                   455.10                   514.37                   681.62                   709.00                   725.06                   729.47                   458.19                   517.67                   686.87                   715.14                   731.77                   736.36                   462.85                   523.79                   696.69                   725.73                   742.69                   747.35                   457.31                   516.63                   684.11                   711.63                   727.76                   732.22                   456.64                   516.05                   683.83                   711.22                   727.34                   731.81                   460.57                   520.91                   692.69                   721.59                   738.61                   743.27                   458.13                   518.39                   690.33                   719.15                   736.20                   740.83                   450.51                   509.18                   674.82                   701.80                   717.57                   721.91                   436.28                   492.60                   653.77                   680.16                   695.48                   699.80                   418.25                   464.23                   580.49                   597.09                   607.04                   610.10
12.000                   2.2500                   2.0000                   6000.0                   2500.0                   65.000                   492.82                   552.94                   724.53                   754.64                   771.96                   776.50                   495.33                   555.86                   732.17                   764.01                   782.21                   786.98                   499.92                   561.81                   743.48                   776.54                   795.41                   800.32                   494.70                   554.91                   728.22                   759.06                   776.76                   781.38                   494.05                   554.32                   727.42                   758.10                   775.66                   780.24                   497.66                   559.08                   739.80                   772.88                   791.75                   796.61                   495.45                   556.71                   735.63                   767.94                   786.35                   791.14                   487.43                   547.02                   716.42                   745.78                   762.77                   767.24                   472.01                   529.61                   695.42                   723.89                   740.45                   744.94                   452.65                   499.86                   619.20                   636.45                   646.70                   649.76
12.000                   2.2500                   2.0000                   6000.0                   2500.0                   70.000                   529.52                   589.96                   764.77                   797.91                   816.57                   821.24                   531.58                   592.71                   774.75                   810.25                   829.77                   834.64                   536.13                   598.59                   788.91                   826.11                   846.35                   851.40                   531.13                   591.77                   769.87                   804.26                   823.51                   828.28                   530.50                   591.13                   768.56                   802.68                   821.62                   826.31                   533.93                   596.04                   785.15                   822.57                   842.95                   847.93                   531.89                   593.70                   779.22                   815.48                   835.28                   840.21                   523.42                   583.44                   755.07                   786.97                   805.26                   809.85                   506.96                   565.48                   733.47                   763.53                   781.00                   785.60                   486.42                   534.74                   656.52                   674.38                   684.88                   687.91
12.000                   2.2500                   2.0000                   6000.0                   2500.0                   75.000                   563.29                   623.40                   807.46                   842.31                   861.35                   865.87                   565.11                   626.18                   819.55                   856.76                   876.46                   881.14                   569.67                   632.24                   836.69                   875.49                   895.66                   900.45                   564.75                   625.21                   814.16                   850.46                   870.14                   874.75                   564.09                   624.45                   811.79                   847.63                   866.95                   871.49                   567.57                   629.82                   832.85                   872.06                   892.51                   897.25                   565.60                   627.41                   825.54                   863.58                   883.57                   888.30                   556.70                   616.42                   795.91                   829.68                   848.47                   852.97                   539.55                   597.97                   771.44                   803.65                   821.70                   826.28                   518.24                   566.54                   687.55                   705.44                   716.03                   719.01