% Model:              batchmodel_COIL_N_12_COIL_kr_3_COIL_kh_1.5_FUNZ_freq_10000_FUNZ_I_eff_2500.mph
% Version:            COMSOL 6.0.0.318
% Date:               Feb 8 2022, 20:27
% Table:              Tabella 1 - GRIGLIA_T
% COIL_N                 COIL_kr                  COIL_kh                  FUNZ_freq                FUNZ_I_eff               Time (s)                 Temperatura (degC), Point: (0, 0)Temperatura (degC), Point: (15, 0)Temperatura (degC), Point: (28.051, 0)Temperatura (degC), Point: (29.025, 0)Temperatura (degC), Point: (29.61, 0)Temperatura (degC), Point: (29.99, 0)Temperatura (degC), Point: (0, 62.5)Temperatura (degC), Point: (15, 62.5)Temperatura (degC), Point: (28.051, 62.5)Temperatura (degC), Point: (29.025, 62.5)Temperatura (degC), Point: (29.61, 62.5)Temperatura (degC), Point: (29.99, 62.5)Temperatura (degC), Point: (0, 125)Temperatura (degC), Point: (15, 125)Temperatura (degC), Point: (28.051, 125)Temperatura (degC), Point: (29.025, 125)Temperatura (degC), Point: (29.61, 125)Temperatura (degC), Point: (29.99, 125)Temperatura (degC), Point: (0, 187.5)Temperatura (degC), Point: (15, 187.5)Temperatura (degC), Point: (28.051, 187.5)Temperatura (degC), Point: (29.025, 187.5)Temperatura (degC), Point: (29.61, 187.5)Temperatura (degC), Point: (29.99, 187.5)Temperatura (degC), Point: (0, 250)Temperatura (degC), Point: (15, 250)Temperatura (degC), Point: (28.051, 250)Temperatura (degC), Point: (29.025, 250)Temperatura (degC), Point: (29.61, 250)Temperatura (degC), Point: (29.99, 250)Temperatura (degC), Point: (0, 312.5)Temperatura (degC), Point: (15, 312.5)Temperatura (degC), Point: (28.051, 312.5)Temperatura (degC), Point: (29.025, 312.5)Temperatura (degC), Point: (29.61, 312.5)Temperatura (degC), Point: (29.99, 312.5)Temperatura (degC), Point: (0, 375)Temperatura (degC), Point: (15, 375)Temperatura (degC), Point: (28.051, 375)Temperatura (degC), Point: (29.025, 375)Temperatura (degC), Point: (29.61, 375)Temperatura (degC), Point: (29.99, 375)Temperatura (degC), Point: (0, 437.5)Temperatura (degC), Point: (15, 437.5)Temperatura (degC), Point: (28.051, 437.5)Temperatura (degC), Point: (29.025, 437.5)Temperatura (degC), Point: (29.61, 437.5)Temperatura (degC), Point: (29.99, 437.5)Temperatura (degC), Point: (0, 468.75)Temperatura (degC), Point: (15, 468.75)Temperatura (degC), Point: (28.051, 468.75)Temperatura (degC), Point: (29.025, 468.75)Temperatura (degC), Point: (29.61, 468.75)Temperatura (degC), Point: (29.99, 468.75)Temperatura (degC), Point: (0, 492.19)Temperatura (degC), Point: (15, 492.19)Temperatura (degC), Point: (28.051, 492.19)Temperatura (degC), Point: (29.025, 492.19)Temperatura (degC), Point: (29.61, 492.19)Temperatura (degC), Point: (29.99, 492.19)
12.000                   3.0000                   1.5000                   10000                    2500.0                   0.0000                   20.000                   20.000                   20.000                   20.000                   20.036                   20.297                   20.000                   20.000                   20.000                   20.000                   20.038                   20.306                   20.000                   20.000                   20.000                   20.000                   20.039                   20.311                   20.000                   20.000                   20.000                   20.000                   20.036                   20.299                   20.000                   20.000                   20.000                   20.000                   20.037                   20.300                   20.000                   20.000                   20.000                   20.000                   20.039                   20.311                   20.000                   20.000                   20.000                   20.000                   20.037                   20.303                   20.000                   20.000                   20.000                   20.000                   20.035                   20.293                   20.000                   20.000                   20.000                   20.000                   20.035                   20.295                   20.000                   20.000                   20.000                   20.000                   20.030                   20.272
12.000                   3.0000                   1.5000                   10000                    2500.0                   5.0000                   23.186                   38.859                   131.10                   143.51                   150.21                   152.91                   23.413                   40.305                   142.07                   155.46                   162.76                   165.77                   23.268                   39.488                   133.35                   147.00                   155.03                   157.94                   23.213                   39.218                   135.81                   148.57                   155.22                   158.02                   23.211                   39.308                   141.67                   154.21                   161.35                   164.27                   23.287                   39.614                   138.80                   153.21                   161.04                   164.14                   23.359                   40.200                   146.79                   159.75                   166.59                   169.10                   23.136                   38.768                   135.79                   147.99                   154.68                   157.50                   23.187                   38.976                   137.67                   150.20                   157.03                   159.84                   28.013                   45.136                   127.97                   139.18                   144.76                   147.05
12.000                   3.0000                   1.5000                   10000                    2500.0                   10.000                   51.329                   86.660                   199.44                   212.19                   220.11                   223.23                   52.230                   88.615                   204.49                   217.63                   225.80                   229.01                   51.551                   87.306                   203.40                   216.77                   225.08                   228.34                   51.197                   86.486                   199.26                   212.07                   220.05                   223.20                   51.366                   87.120                   200.80                   213.62                   221.60                   224.75                   51.836                   87.993                   204.72                   218.08                   226.40                   229.66                   52.070                   88.536                   203.98                   216.96                   225.06                   228.25                   50.719                   85.419                   195.35                   207.79                   215.53                   218.61                   50.914                   85.470                   194.36                   206.57                   214.17                   217.20                   57.416                   90.475                   184.81                   194.65                   200.72                   203.26
12.000                   3.0000                   1.5000                   10000                    2500.0                   15.000                   93.972                   138.56                   266.74                   281.14                   290.03                   293.38                   95.200                   140.64                   272.00                   286.86                   296.05                   299.49                   94.370                   139.81                   272.62                   287.68                   296.98                   300.44                   93.533                   138.06                   266.55                   281.01                   289.94                   293.30                   93.844                   138.56                   266.79                   281.29                   290.25                   293.62                   94.924                   140.59                   273.53                   288.63                   297.97                   301.44                   94.948                   140.29                   270.89                   285.54                   294.60                   298.00                   92.344                   135.92                   260.65                   274.60                   283.23                   286.50                   91.992                   134.51                   255.61                   269.13                   277.49                   280.68                   95.833                   135.70                   237.85                   248.19                   254.49                   257.04
12.000                   3.0000                   1.5000                   10000                    2500.0                   20.000                   144.34                   193.90                   337.32                   353.67                   363.70                   367.27                   145.61                   195.93                   342.39                   359.19                   369.50                   373.14                   145.00                   195.62                   343.88                   360.91                   371.33                   375.01                   143.68                   193.21                   336.79                   353.17                   363.20                   366.78                   143.87                   193.38                   336.77                   353.10                   363.13                   366.70                   145.57                   196.22                   344.25                   361.30                   371.75                   375.43                   145.29                   195.51                   341.97                   358.53                   368.70                   372.31                   141.32                   189.59                   328.55                   344.29                   353.96                   357.44                   139.19                   185.64                   318.90                   333.95                   343.19                   346.55                   140.22                   183.02                   291.92                   303.03                   309.74                   312.35
12.000                   3.0000                   1.5000                   10000                    2500.0                   25.000                   196.11                   250.19                   409.31                   427.70                   438.89                   442.66                   197.32                   252.08                   414.07                   432.89                   444.33                   448.16                   196.98                   252.25                   416.35                   435.46                   447.04                   450.91                   195.25                   249.30                   408.40                   426.79                   437.96                   441.73                   195.27                   249.17                   408.23                   426.52                   437.66                   441.43                   197.46                   252.60                   416.19                   435.27                   446.85                   450.73                   196.95                   251.69                   414.27                   432.86                   444.17                   447.97                   191.58                   244.08                   397.57                   415.19                   425.91                   429.58                   187.30                   237.31                   383.08                   399.73                   409.87                   413.39                   185.54                   230.82                   347.06                   359.11                   366.37                   369.06
12.000                   3.0000                   1.5000                   10000                    2500.0                   30.000                   248.53                   306.91                   482.38                   503.09                   515.58                   519.55                   249.64                   308.65                   486.86                   508.01                   520.74                   524.77                   249.54                   309.15                   489.73                   511.21                   524.11                   528.18                   247.53                   305.87                   481.21                   501.92                   514.38                   518.35                   247.36                   305.49                   480.80                   501.35                   513.77                   517.74                   249.90                   309.29                   489.16                   510.59                   523.46                   527.53                   249.24                   308.26                   487.33                   508.25                   520.85                   524.85                   242.40                   298.87                   467.20                   486.86                   498.73                   502.57                   235.63                   288.99                   447.36                   465.68                   476.76                   480.42                   231.08                   278.58                   402.29                   415.33                   423.18                   425.96
12.000                   3.0000                   1.5000                   10000                    2500.0                   35.000                   301.10                   363.69                   556.14                   579.52                   593.50                   597.69                   302.07                   365.28                   560.48                   584.34                   598.58                   602.82                   302.18                   366.01                   563.68                   587.92                   602.34                   606.62                   300.01                   362.58                   554.95                   578.33                   592.28                   596.47                   299.65                   361.99                   554.05                   577.26                   591.15                   595.33                   302.39                   365.98                   562.91                   587.07                   601.44                   605.71                   301.62                   364.86                   560.74                   584.35                   598.45                   602.66                   293.25                   353.60                   537.04                   558.95                   572.07                   576.09                   283.72                   340.38                   511.30                   531.32                   543.36                   547.16                   276.40                   325.98                   457.06                   471.05                   479.47                   482.34
12.000                   3.0000                   1.5000                   10000                    2500.0                   40.000                   353.67                   420.48                   629.90                   655.95                   671.43                   675.83                   354.50                   421.91                   634.11                   660.67                   676.42                   680.87                   354.81                   422.86                   637.63                   664.62                   680.56                   685.06                   352.50                   419.30                   628.68                   654.74                   670.19                   674.58                   351.94                   418.49                   627.31                   653.16                   668.53                   672.91                   354.87                   422.67                   636.67                   663.54                   679.41                   683.90                   354.00                   421.46                   634.16                   660.46                   676.05                   680.47                   344.10                   408.34                   606.88                   631.03                   645.41                   649.60                   331.82                   391.77                   575.23                   596.97                   609.97                   613.90                   321.72                   373.38                   511.82                   526.77                   535.75                   538.71
12.000                   3.0000                   1.5000                   10000                    2500.0                   45.000                   401.21                   470.32                   690.39                   719.90                   736.90                   741.52                   402.01                   471.80                   695.88                   726.13                   743.48                   748.16                   402.45                   472.87                   700.04                   730.79                   748.34                   753.06                   400.05                   469.18                   689.44                   719.02                   736.02                   740.64                   399.42                   468.35                   688.16                   717.60                   734.56                   739.18                   402.42                   472.62                   699.11                   729.77                   747.28                   751.99                   401.43                   471.20                   695.08                   725.04                   742.23                   746.88                   390.45                   457.00                   664.81                   691.91                   707.84                   712.27                   376.19                   438.37                   630.12                   653.74                   667.83                   671.93                   364.13                   417.61                   562.66                   578.57                   588.09                   591.10
12.000                   3.0000                   1.5000                   10000                    2500.0                   50.000                   447.71                   518.71                   748.12                   781.26                   799.78                   804.61                   448.51                   520.29                   755.19                   789.34                   808.30                   813.20                   449.05                   521.47                   760.06                   794.77                   813.95                   818.89                   446.57                   517.64                   747.51                   780.77                   799.35                   804.20                   445.89                   516.82                   746.42                   779.65                   798.24                   803.10                   448.93                   521.17                   759.21                   793.88                   813.05                   817.99                   447.83                   519.53                   753.40                   787.23                   806.04                   810.92                   435.87                   504.39                   720.27                   750.46                   768.00                   772.70                   419.78                   483.97                   683.12                   708.66                   723.88                   728.16                   405.94                   461.18                   612.68                   629.56                   639.59                   642.67
12.000                   3.0000                   1.5000                   10000                    2500.0                   55.000                   493.13                   565.60                   806.93                   842.93                   862.48                   867.38                   493.93                   567.30                   815.52                   852.65                   872.68                   877.65                   494.58                   568.58                   821.04                   858.75                   878.99                   883.99                   492.02                   564.61                   806.66                   842.83                   862.49                   867.41                   491.29                   563.81                   805.84                   842.08                   861.78                   866.72                   494.39                   568.25                   820.32                   858.04                   878.29                   883.29                   493.16                   566.37                   812.86                   849.68                   869.58                   874.53                   480.29                   550.42                   776.92                   809.96                   828.76                   833.60                   462.42                   528.25                   735.09                   762.80                   779.09                   783.52                   446.90                   503.57                   659.84                   677.50                   687.99                   691.10
12.000                   3.0000                   1.5000                   10000                    2500.0                   60.000                   535.07                   607.69                   869.20                   905.57                   924.59                   929.09                   535.95                   609.59                   879.09                   916.33                   935.67                   940.20                   536.68                   610.97                   885.08                   922.73                   942.20                   946.72                   534.02                   606.82                   869.31                   905.89                   925.03                   929.54                   533.32                   606.12                   868.98                   905.68                   924.88                   929.42                   536.45                   610.65                   884.65                   922.36                   941.87                   946.40                   535.08                   608.53                   875.95                   913.00                   932.29                   936.81                   521.52                   592.11                   837.34                   872.48                   891.41                   896.01                   502.03                   568.29                   783.73                   814.42                   831.65                   836.10                   485.11                   542.21                   697.88                   715.73                   726.45                   729.55
12.000                   3.0000                   1.5000                   10000                    2500.0                   65.000                   574.69                   646.86                   921.72                   956.72                   974.39                   978.32                   575.65                   648.92                   932.07                   967.61                   985.32                   989.19                   576.45                   650.41                   938.36                   974.11                   991.76                   995.56                   573.71                   646.12                   922.23                   957.45                   975.21                   979.14                   573.05                   645.52                   922.32                   957.70                   975.52                   979.48                   576.19                   650.11                   938.30                   974.15                   991.85                   995.66                   574.70                   647.79                   928.92                   964.40                   982.15                   986.04                   560.76                   631.37                   892.13                   927.52                   945.79                   950.00                   539.94                   606.18                   831.83                   864.27                   881.84                   886.18                   521.72                   578.52                   732.60                   750.81                   761.74                   764.81
12.000                   3.0000                   1.5000                   10000                    2500.0                   70.000                   610.43                   681.16                   957.95                   988.67                   1003.6                   1006.7                   611.46                   683.33                   967.37                   998.17                   1012.7                   1015.5                   612.31                   684.92                   973.62                   1004.4                   1018.5                   1021.2                   609.55                   680.53                   958.86                   989.76                   1004.7                   1007.8                   608.95                   680.07                   959.31                   990.36                   1005.4                   1008.4                   612.06                   684.69                   974.07                   1005.0                   1019.1                   1021.8                   610.49                   682.21                   964.96                   995.88                   1010.5                   1013.5                   596.69                   666.56                   937.52                   970.03                   986.35                   989.90                   575.01                   640.47                   879.05                   911.14                   928.07                   932.06                   555.66                   610.93                   761.76                   780.61                   791.73                   794.74
12.000                   3.0000                   1.5000                   10000                    2500.0                   75.000                   643.18                   711.92                   984.26                   1010.4                   1022.4                   1024.6                   644.29                   714.27                   991.89                   1017.7                   1029.1                   1031.0                   645.18                   716.06                   999.36                   1024.9                   1035.7                   1037.3                   642.41                   711.47                   985.47                   1011.8                   1023.8                   1026.0                   641.89                   711.12                   986.12                   1012.5                   1024.5                   1026.7                   644.95                   715.93                   1001.4                   1027.2                   1037.9                   1039.5                   643.31                   713.15                   990.30                   1016.3                   1027.9                   1029.9                   629.99                   698.46                   972.02                   1000.7                   1014.4                   1017.1                   607.85                   672.16                   919.09                   949.54                   965.27                   968.80                   587.52                   640.94                   790.65                   809.81                   820.87                   823.76