% Model:              batchmodel_COIL_N_12_COIL_kr_3_COIL_kh_1.5_FUNZ_freq_10000_FUNZ_I_eff_1000.mph
% Version:            COMSOL 6.0.0.318
% Date:               Feb 8 2022, 20:09
% Table:              Tabella 1 - GRIGLIA_T
% COIL_N                 COIL_kr                  COIL_kh                  FUNZ_freq                FUNZ_I_eff               Time (s)                 Temperatura (degC), Point: (0, 0)Temperatura (degC), Point: (15, 0)Temperatura (degC), Point: (28.051, 0)Temperatura (degC), Point: (29.025, 0)Temperatura (degC), Point: (29.61, 0)Temperatura (degC), Point: (29.99, 0)Temperatura (degC), Point: (0, 62.5)Temperatura (degC), Point: (15, 62.5)Temperatura (degC), Point: (28.051, 62.5)Temperatura (degC), Point: (29.025, 62.5)Temperatura (degC), Point: (29.61, 62.5)Temperatura (degC), Point: (29.99, 62.5)Temperatura (degC), Point: (0, 125)Temperatura (degC), Point: (15, 125)Temperatura (degC), Point: (28.051, 125)Temperatura (degC), Point: (29.025, 125)Temperatura (degC), Point: (29.61, 125)Temperatura (degC), Point: (29.99, 125)Temperatura (degC), Point: (0, 187.5)Temperatura (degC), Point: (15, 187.5)Temperatura (degC), Point: (28.051, 187.5)Temperatura (degC), Point: (29.025, 187.5)Temperatura (degC), Point: (29.61, 187.5)Temperatura (degC), Point: (29.99, 187.5)Temperatura (degC), Point: (0, 250)Temperatura (degC), Point: (15, 250)Temperatura (degC), Point: (28.051, 250)Temperatura (degC), Point: (29.025, 250)Temperatura (degC), Point: (29.61, 250)Temperatura (degC), Point: (29.99, 250)Temperatura (degC), Point: (0, 312.5)Temperatura (degC), Point: (15, 312.5)Temperatura (degC), Point: (28.051, 312.5)Temperatura (degC), Point: (29.025, 312.5)Temperatura (degC), Point: (29.61, 312.5)Temperatura (degC), Point: (29.99, 312.5)Temperatura (degC), Point: (0, 375)Temperatura (degC), Point: (15, 375)Temperatura (degC), Point: (28.051, 375)Temperatura (degC), Point: (29.025, 375)Temperatura (degC), Point: (29.61, 375)Temperatura (degC), Point: (29.99, 375)Temperatura (degC), Point: (0, 437.5)Temperatura (degC), Point: (15, 437.5)Temperatura (degC), Point: (28.051, 437.5)Temperatura (degC), Point: (29.025, 437.5)Temperatura (degC), Point: (29.61, 437.5)Temperatura (degC), Point: (29.99, 437.5)Temperatura (degC), Point: (0, 468.75)Temperatura (degC), Point: (15, 468.75)Temperatura (degC), Point: (28.051, 468.75)Temperatura (degC), Point: (29.025, 468.75)Temperatura (degC), Point: (29.61, 468.75)Temperatura (degC), Point: (29.99, 468.75)Temperatura (degC), Point: (0, 492.19)Temperatura (degC), Point: (15, 492.19)Temperatura (degC), Point: (28.051, 492.19)Temperatura (degC), Point: (29.025, 492.19)Temperatura (degC), Point: (29.61, 492.19)Temperatura (degC), Point: (29.99, 492.19)
12.000                   3.0000                   1.5000                   10000                    1000.0                   0.0000                   20.000                   20.000                   20.000                   20.000                   20.003                   20.097                   20.000                   20.000                   20.000                   20.000                   20.003                   20.099                   20.000                   20.000                   20.000                   20.000                   20.003                   20.100                   20.000                   20.000                   20.000                   20.000                   20.003                   20.097                   20.000                   20.000                   20.000                   20.000                   20.003                   20.097                   20.000                   20.000                   20.000                   20.000                   20.003                   20.100                   20.000                   20.000                   20.000                   20.000                   20.003                   20.098                   20.000                   20.000                   20.000                   20.000                   20.003                   20.095                   20.000                   20.000                   20.000                   20.000                   20.003                   20.094                   20.000                   20.000                   20.000                   20.000                   20.002                   20.075
12.000                   3.0000                   1.5000                   10000                    1000.0                   5.0000                   21.023                   23.939                   42.217                   44.618                   46.116                   46.898                   21.042                   24.049                   42.843                   45.314                   46.856                   47.659                   21.054                   24.104                   43.161                   45.665                   47.228                   48.042                   21.024                   23.967                   42.350                   44.768                   46.277                   47.063                   21.027                   23.981                   42.438                   44.868                   46.384                   47.174                   21.055                   24.106                   43.186                   45.692                   47.257                   48.072                   21.034                   24.016                   42.659                   45.113                   46.645                   47.442                   20.997                   23.866                   41.847                   44.217                   45.695                   46.468                   20.962                   23.747                   41.214                   43.514                   44.952                   45.706                   21.079                   23.709                   37.439                   39.129                   40.190                   40.761
12.000                   3.0000                   1.5000                   10000                    1000.0                   10.000                   26.266                   33.203                   56.352                   58.820                   60.357                   61.151                   26.374                   33.479                   57.216                   59.754                   61.337                   62.151                   26.431                   33.616                   57.643                   60.217                   61.822                   62.647                   26.285                   33.265                   56.546                   59.029                   60.576                   61.375                   26.300                   33.301                   56.662                   59.154                   60.706                   61.507                   26.431                   33.620                   57.664                   60.239                   61.845                   62.671                   26.333                   33.387                   56.949                   59.466                   61.034                   61.842                   26.120                   32.928                   55.647                   58.066                   59.572                   60.352                   25.826                   32.324                   54.140                   56.481                   57.941                   58.700                   25.819                   31.620                   48.707                   50.451                   51.532                   52.106
12.000                   3.0000                   1.5000                   10000                    1000.0                   15.000                   35.000                   44.114                   69.099                   71.628                   73.194                   73.996                   35.215                   44.524                   70.119                   72.720                   74.331                   75.154                   35.322                   44.725                   70.619                   73.256                   74.890                   75.723                   35.042                   44.202                   69.324                   71.869                   73.445                   74.252                   35.070                   44.255                   69.457                   72.011                   73.593                   74.402                   35.319                   44.725                   70.633                   73.272                   74.907                   75.741                   35.126                   44.371                   69.778                   72.357                   73.954                   74.771                   34.618                   43.545                   68.028                   70.506                   72.040                   72.827                   33.799                   42.246                   65.610                   67.999                   69.480                   70.244                   33.260                   40.687                   59.236                   61.008                   62.097                   62.671
12.000                   3.0000                   1.5000                   10000                    1000.0                   20.000                   45.191                   55.505                   81.500                   84.076                   85.666                   86.474                   45.506                   56.024                   82.640                   85.290                   86.926                   87.754                   45.659                   56.276                   83.197                   85.882                   87.541                   88.380                   45.255                   55.614                   81.748                   84.341                   85.941                   86.753                   45.293                   55.679                   81.894                   84.496                   86.102                   86.918                   45.650                   56.269                   83.203                   85.890                   87.550                   88.390                   45.363                   55.811                   82.231                   84.858                   86.481                   87.303                   44.501                   54.588                   80.034                   82.559                   84.117                   84.911                   43.035                   52.526                   76.716                   79.143                   80.644                   81.413                   41.860                   50.165                   69.550                   71.341                   72.437                   73.011
12.000                   3.0000                   1.5000                   10000                    1000.0                   25.000                   56.459                   67.268                   93.790                   96.408                   98.021                   98.835                   56.853                   67.868                   95.018                   97.710                   99.370                   100.21                   57.043                   68.158                   95.616                   98.344                   100.03                   100.87                   56.538                   67.392                   94.053                   96.687                   98.311                   99.130                   56.584                   67.464                   94.207                   96.851                   98.481                   99.303                   57.025                   68.141                   95.611                   98.342                   100.03                   100.87                   56.652                   67.594                   94.542                   97.212                   98.858                   99.687                   55.374                   65.934                   91.871                   94.434                   96.014                   96.815                   53.186                   63.085                   87.680                   90.139                   91.659                   92.433                   51.396                   60.080                   79.947                   81.758                   82.863                   83.438
12.000                   3.0000                   1.5000                   10000                    1000.0                   30.000                   68.416                   79.322                   106.17                   108.83                   110.47                   111.29                   68.864                   79.974                   107.46                   110.19                   111.88                   112.72                   69.078                   80.287                   108.08                   110.85                   112.57                   113.42                   68.504                   79.454                   106.44                   109.12                   110.77                   111.60                   68.552                   79.529                   106.60                   109.28                   110.94                   111.77                   69.047                   80.257                   108.06                   110.84                   112.55                   113.41                   68.599                   79.636                   106.91                   109.62                   111.30                   112.13                   66.846                   77.488                   103.71                   106.31                   107.92                   108.72                   63.908                   73.864                   98.682                   101.17                   102.71                   103.49                   61.609                   70.411                   90.633                   92.468                   93.584                   94.161
12.000                   3.0000                   1.5000                   10000                    1000.0                   35.000                   80.373                   91.376                   118.55                   121.25                   122.92                   123.75                   80.874                   92.080                   119.89                   122.67                   124.39                   125.24                   81.114                   92.417                   120.55                   123.37                   125.11                   125.97                   80.469                   91.516                   118.83                   121.55                   123.22                   124.06                   80.521                   91.593                   118.99                   121.72                   123.40                   124.24                   81.070                   92.374                   120.51                   123.33                   125.08                   125.94                   80.547                   91.677                   119.28                   122.03                   123.73                   124.58                   78.317                   89.042                   115.55                   118.19                   119.82                   120.63                   74.630                   84.644                   109.68                   112.20                   113.76                   114.55                   71.823                   80.742                   101.32                   103.18                   104.31                   104.88
12.000                   3.0000                   1.5000                   10000                    1000.0                   40.000                   92.638                   103.75                   131.35                   134.10                   135.80                   136.64                   93.168                   104.49                   132.73                   135.57                   137.31                   138.18                   93.419                   104.84                   133.41                   136.28                   138.05                   138.92                   92.736                   103.89                   131.63                   134.40                   136.11                   136.96                   92.787                   103.97                   131.79                   134.57                   136.29                   137.14                   93.359                   104.78                   133.36                   136.23                   138.00                   138.88                   92.757                   104.00                   132.03                   134.83                   136.56                   137.42                   89.983                   100.80                   127.69                   130.37                   132.03                   132.85                   85.639                   95.716                   121.05                   123.61                   125.19                   125.98                   82.569                   91.582                   112.37                   114.25                   115.39                   115.97
12.000                   3.0000                   1.5000                   10000                    1000.0                   45.000                   104.96                   116.19                   144.23                   147.03                   148.76                   149.62                   105.51                   116.95                   145.65                   148.54                   150.32                   151.19                   105.78                   117.31                   146.34                   149.26                   151.07                   151.95                   105.06                   116.33                   144.52                   147.34                   149.08                   149.94                   105.11                   116.41                   144.68                   147.51                   149.26                   150.12                   105.70                   117.23                   146.27                   149.20                   151.00                   151.89                   105.02                   116.37                   144.85                   147.70                   149.47                   150.33                   101.69                   112.60                   139.88                   142.61                   144.30                   145.13                   96.701                   106.84                   132.48                   135.08                   136.68                   137.48                   93.417                   102.52                   123.50                   125.39                   126.54                   127.12
12.000                   3.0000                   1.5000                   10000                    1000.0                   50.000                   117.28                   128.63                   157.11                   159.97                   161.73                   162.59                   117.86                   129.41                   158.57                   161.51                   163.32                   164.20                   118.13                   129.78                   159.27                   162.25                   164.09                   164.98                   117.38                   128.77                   157.40                   160.28                   162.05                   162.92                   117.43                   128.84                   157.56                   160.45                   162.23                   163.10                   118.04                   129.69                   159.18                   162.16                   164.00                   164.90                   117.28                   128.74                   157.66                   160.58                   162.37                   163.25                   113.39                   124.40                   152.08                   154.85                   156.57                   157.41                   107.76                   117.97                   143.92                   146.55                   148.18                   148.98                   104.26                   113.45                   134.62                   136.53                   137.69                   138.27
12.000                   3.0000                   1.5000                   10000                    1000.0                   55.000                   129.61                   141.06                   169.99                   172.90                   174.70                   175.57                   130.21                   141.87                   171.49                   174.48                   176.32                   177.22                   130.49                   142.26                   172.21                   175.24                   177.11                   178.01                   129.71                   141.21                   170.29                   173.21                   175.02                   175.89                   129.75                   141.28                   170.45                   173.38                   175.20                   176.07                   130.37                   142.14                   172.10                   175.13                   177.00                   177.91                   129.53                   141.12                   170.48                   173.45                   175.28                   176.16                   125.09                   136.20                   164.27                   167.09                   168.84                   169.69                   118.83                   129.10                   155.35                   158.02                   159.67                   160.48                   115.11                   124.39                   145.74                   147.67                   148.84                   149.43
12.000                   3.0000                   1.5000                   10000                    1000.0                   60.000                   141.93                   153.50                   182.88                   185.83                   187.66                   188.54                   142.55                   154.34                   184.41                   187.45                   189.33                   190.23                   142.85                   154.73                   185.14                   188.22                   190.13                   191.04                   142.03                   153.65                   183.17                   186.15                   187.99                   188.87                   142.07                   153.72                   183.33                   186.32                   188.16                   189.05                   142.71                   154.60                   185.01                   188.10                   190.00                   190.92                   141.79                   153.49                   183.30                   186.32                   188.18                   189.08                   136.79                   147.99                   176.46                   179.33                   181.11                   181.96                   129.89                   140.23                   166.79                   169.49                   171.17                   171.99                   125.96                   135.32                   156.86                   158.81                   159.99                   160.58
12.000                   3.0000                   1.5000                   10000                    1000.0                   65.000                   154.49                   166.24                   196.19                   199.21                   201.08                   201.97                   155.12                   167.09                   197.75                   200.85                   202.77                   203.69                   155.42                   167.49                   198.49                   201.64                   203.59                   204.51                   154.59                   166.39                   196.49                   199.53                   201.41                   202.30                   154.63                   166.45                   196.64                   199.70                   201.58                   202.48                   155.26                   167.34                   198.34                   201.49                   203.44                   204.36                   154.25                   166.13                   196.52                   199.59                   201.49                   202.40                   148.64                   160.00                   188.97                   191.90                   193.71                   194.58                   141.11                   151.56                   178.50                   181.25                   182.95                   183.78                   136.96                   146.38                   167.92                   169.88                   171.06                   171.65
12.000                   3.0000                   1.5000                   10000                    1000.0                   70.000                   167.08                   179.03                   209.58                   212.67                   214.57                   215.48                   167.73                   179.89                   211.15                   214.33                   216.29                   217.22                   168.03                   180.30                   211.91                   215.12                   217.11                   218.05                   167.18                   179.17                   209.87                   212.98                   214.90                   215.81                   167.21                   179.23                   210.03                   213.14                   215.07                   215.98                   167.85                   180.12                   211.73                   214.95                   216.94                   217.88                   166.74                   178.81                   209.79                   212.93                   214.88                   215.80                   160.51                   172.04                   201.53                   204.52                   206.36                   207.24                   152.36                   162.93                   190.25                   193.05                   194.77                   195.61                   147.98                   157.46                   178.97                   180.93                   182.12                   182.72
12.000                   3.0000                   1.5000                   10000                    1000.0                   75.000                   179.68                   191.82                   222.96                   226.12                   228.07                   228.98                   180.33                   192.69                   224.56                   227.80                   229.80                   230.74                   180.63                   193.10                   225.32                   228.60                   230.64                   231.59                   179.77                   191.96                   223.26                   226.43                   228.39                   229.31                   179.80                   192.02                   223.41                   226.59                   228.56                   229.48                   180.44                   192.90                   225.12                   228.40                   230.44                   231.39                   179.23                   191.49                   223.06                   226.27                   228.26                   229.19                   172.39                   184.08                   214.09                   217.13                   219.01                   219.90                   163.61                   174.30                   202.01                   204.85                   206.60                   207.45                   159.00                   168.54                   190.01                   191.98                   193.18                   193.78