% Model:              batchmodel_COIL_N_12_COIL_kr_1.5_COIL_kh_1.5_FUNZ_freq_6000_FUNZ_I_eff_4000.mph
% Version:            COMSOL 6.0.0.318
% Date:               Feb 8 2022, 18:47
% Table:              Tabella 1 - GRIGLIA_T
% COIL_N                 COIL_kr                  COIL_kh                  FUNZ_freq                FUNZ_I_eff               Time (s)                 Temperatura (degC), Point: (0, 0)Temperatura (degC), Point: (15, 0)Temperatura (degC), Point: (27.483, 0)Temperatura (degC), Point: (28.742, 0)Temperatura (degC), Point: (29.497, 0)Temperatura (degC), Point: (29.99, 0)Temperatura (degC), Point: (0, 62.5)Temperatura (degC), Point: (15, 62.5)Temperatura (degC), Point: (27.483, 62.5)Temperatura (degC), Point: (28.742, 62.5)Temperatura (degC), Point: (29.497, 62.5)Temperatura (degC), Point: (29.99, 62.5)Temperatura (degC), Point: (0, 125)Temperatura (degC), Point: (15, 125)Temperatura (degC), Point: (27.483, 125)Temperatura (degC), Point: (28.742, 125)Temperatura (degC), Point: (29.497, 125)Temperatura (degC), Point: (29.99, 125)Temperatura (degC), Point: (0, 187.5)Temperatura (degC), Point: (15, 187.5)Temperatura (degC), Point: (27.483, 187.5)Temperatura (degC), Point: (28.742, 187.5)Temperatura (degC), Point: (29.497, 187.5)Temperatura (degC), Point: (29.99, 187.5)Temperatura (degC), Point: (0, 250)Temperatura (degC), Point: (15, 250)Temperatura (degC), Point: (27.483, 250)Temperatura (degC), Point: (28.742, 250)Temperatura (degC), Point: (29.497, 250)Temperatura (degC), Point: (29.99, 250)Temperatura (degC), Point: (0, 312.5)Temperatura (degC), Point: (15, 312.5)Temperatura (degC), Point: (27.483, 312.5)Temperatura (degC), Point: (28.742, 312.5)Temperatura (degC), Point: (29.497, 312.5)Temperatura (degC), Point: (29.99, 312.5)Temperatura (degC), Point: (0, 375)Temperatura (degC), Point: (15, 375)Temperatura (degC), Point: (27.483, 375)Temperatura (degC), Point: (28.742, 375)Temperatura (degC), Point: (29.497, 375)Temperatura (degC), Point: (29.99, 375)Temperatura (degC), Point: (0, 437.5)Temperatura (degC), Point: (15, 437.5)Temperatura (degC), Point: (27.483, 437.5)Temperatura (degC), Point: (28.742, 437.5)Temperatura (degC), Point: (29.497, 437.5)Temperatura (degC), Point: (29.99, 437.5)Temperatura (degC), Point: (0, 468.75)Temperatura (degC), Point: (15, 468.75)Temperatura (degC), Point: (27.483, 468.75)Temperatura (degC), Point: (28.742, 468.75)Temperatura (degC), Point: (29.497, 468.75)Temperatura (degC), Point: (29.99, 468.75)Temperatura (degC), Point: (0, 492.19)Temperatura (degC), Point: (15, 492.19)Temperatura (degC), Point: (27.483, 492.19)Temperatura (degC), Point: (28.742, 492.19)Temperatura (degC), Point: (29.497, 492.19)Temperatura (degC), Point: (29.99, 492.19)
12.000                   1.5000                   1.5000                   6000.0                   4000.0                   0.0000                   20.000                   20.000                   20.000                   20.000                   20.028                   20.230                   20.000                   20.000                   20.000                   20.000                   20.085                   20.392                   20.000                   20.000                   20.000                   20.000                   20.130                   20.500                   20.000                   20.000                   20.000                   20.000                   20.036                   20.259                   20.000                   20.000                   20.000                   20.000                   20.044                   20.279                   20.000                   20.000                   20.000                   20.000                   20.137                   20.515                   20.000                   20.000                   20.000                   20.000                   20.070                   20.352                   20.000                   20.000                   20.000                   20.000                   20.028                   20.230                   20.000                   20.000                   20.000                   20.000                   20.095                   20.417                   20.000                   20.000                   20.000                   20.000                   20.127                   20.494
12.000                   1.5000                   1.5000                   6000.0                   4000.0                   5.0000                   25.081                   43.821                   148.44                   167.74                   180.36                   184.95                   27.568                   56.992                   229.18                   262.44                   282.73                   289.99                   29.060                   65.043                   281.88                   327.33                   355.25                   364.00                   25.470                   45.652                   157.32                   176.89                   188.44                   193.07                   25.943                   48.265                   174.21                   196.60                   210.04                   214.96                   29.305                   66.313                   289.15                   335.39                   363.06                   371.72                   27.079                   54.486                   216.05                   246.43                   265.14                   271.51                   25.000                   43.330                   144.95                   163.37                   174.05                   178.32                   28.083                   59.574                   246.01                   282.26                   304.56                   312.28                   33.929                   73.066                   282.39                   323.81                   348.77                   356.57
12.000                   1.5000                   1.5000                   6000.0                   4000.0                   10.000                   64.381                   114.36                   269.33                   293.89                   309.08                   314.28                   78.373                   148.08                   390.26                   433.33                   458.61                   466.18                   86.646                   168.04                   467.05                   524.41                   555.89                   564.77                   65.989                   118.17                   286.36                   313.91                   330.89                   336.57                   68.982                   125.25                   307.87                   337.91                   356.47                   362.69                   87.946                   170.97                   477.30                   536.01                   569.32                   578.64                   75.764                   141.99                   366.31                   404.82                   427.44                   434.49                   63.571                   112.58                   267.36                   292.40                   307.97                   313.07                   81.644                   154.72                   410.40                   456.29                   482.61                   490.38                   100.79                   184.42                   464.42                   514.75                   543.50                   551.77
12.000                   1.5000                   1.5000                   6000.0                   4000.0                   15.000                   132.84                   200.04                   396.59                   428.61                   447.91                   454.10                   158.39                   248.41                   545.23                   599.60                   630.01                   638.51                   173.05                   275.71                   630.57                   699.56                   737.49                   747.47                   135.88                   206.90                   422.39                   458.78                   480.12                   486.70                   141.27                   216.40                   448.22                   488.35                   511.81                   518.66                   175.32                   279.80                   643.12                   714.70                   753.08                   763.19                   153.47                   238.96                   513.26                   562.58                   590.99                   598.86                   131.37                   198.02                   392.78                   424.41                   443.05                   449.17                   164.18                   256.91                   565.27                   621.85                   653.40                   662.29                   192.40                   295.89                   622.09                   681.58                   714.37                   723.19
12.000                   1.5000                   1.5000                   6000.0                   4000.0                   20.000                   212.38                   291.07                   525.69                   565.12                   587.69                   594.21                   245.40                   347.28                   676.61                   737.94                   771.87                   780.79                   263.75                   377.85                   777.92                   872.62                   919.33                   930.05                   216.95                   300.51                   556.33                   599.91                   624.49                   631.45                   223.54                   310.72                   580.26                   626.74                   652.93                   660.19                   266.65                   382.80                   800.65                   901.33                   949.05                   959.70                   238.70                   335.54                   643.30                   699.58                   730.47                   738.70                   210.69                   289.05                   522.53                   561.66                   584.08                   590.57                   252.37                   356.09                   694.86                   760.13                   796.73                   806.17                   286.70                   399.69                   748.98                   822.88                   862.05                   871.47
12.000                   1.5000                   1.5000                   6000.0                   4000.0                   25.000                   294.29                   380.80                   623.15                   659.67                   679.98                   685.57                   331.23                   439.08                   761.49                   818.85                   848.39                   855.47                   351.55                   473.44                   953.28                   1031.8                   1057.5                   1061.1                   300.06                   391.25                   649.89                   689.70                   711.63                   717.56                   306.99                   401.27                   670.18                   712.06                   735.07                   741.22                   354.92                   479.99                   1075.6                   1144.8                   1161.6                   1162.3                   323.36                   426.32                   726.81                   777.15                   804.66                   811.57                   292.56                   378.79                   620.32                   656.61                   676.79                   682.36                   338.44                   447.77                   789.57                   853.21                   884.69                   892.00                   375.12                   491.45                   850.68                   912.25                   941.21                   947.61
12.000                   1.5000                   1.5000                   6000.0                   4000.0                   30.000                   370.85                   456.62                   680.71                   713.99                   732.70                   737.75                   409.63                   515.42                   806.34                   854.28                   878.65                   884.34                   432.42                   560.92                   1069.0                   1111.8                   1122.4                   1122.3                   377.20                   466.81                   701.59                   736.94                   756.94                   762.23                   384.08                   476.27                   718.12                   755.26                   776.21                   781.66                   436.47                   571.32                   1156.9                   1189.0                   1195.2                   1193.8                   400.94                   501.35                   771.43                   816.81                   840.83                   846.65                   369.16                   454.65                   677.35                   710.24                   728.72                   733.71                   416.74                   525.66                   840.79                   888.84                   912.25                   917.48                   453.38                   570.09                   930.29                   974.08                   991.49                   994.48
12.000                   1.5000                   1.5000                   6000.0                   4000.0                   35.000                   437.14                   518.30                   723.33                   754.55                   772.50                   777.21                   478.01                   578.99                   853.63                   895.62                   916.62                   921.26                   504.58                   634.56                   1122.1                   1148.8                   1154.2                   1152.9                   443.84                   528.26                   742.42                   776.45                   795.82                   800.77                   450.68                   537.39                   758.58                   794.94                   815.22                   820.26                   509.52                   647.57                   1175.2                   1195.4                   1198.4                   1196.4                   468.34                   563.31                   814.61                   856.28                   877.86                   882.90                   435.53                   516.37                   719.90                   750.56                   768.20                   772.84                   485.46                   591.51                   899.75                   939.92                   958.59                   962.41                   522.74                   637.50                   1009.1                   1042.7                   1053.1                   1053.6
12.000                   1.5000                   1.5000                   6000.0                   4000.0                   40.000                   492.11                   567.66                   756.78                   787.38                   804.75                   809.12                   536.04                   631.34                   901.63                   937.25                   954.49                   958.03                   565.95                   693.28                   1145.2                   1164.0                   1167.0                   1165.2                   499.36                   577.74                   777.50                   810.96                   829.33                   833.83                   506.40                   586.81                   794.63                   829.54                   848.34                   852.85                   571.50                   707.27                   1178.7                   1193.4                   1194.9                   1192.6                   525.37                   614.11                   855.43                   892.45                   911.29                   915.46                   490.56                   565.78                   752.91                   782.80                   799.87                   804.19                   544.00                   645.44                   955.68                   990.10                   1004.3                   1006.5                   582.45                   694.98                   1084.1                   1106.4                   1111.2                   1110.0
12.000                   1.5000                   1.5000                   6000.0                   4000.0                   45.000                   540.24                   609.62                   787.09                   816.80                   833.15                   837.12                   586.70                   676.84                   949.36                   979.77                   993.28                   995.60                   618.64                   744.26                   1157.7                   1171.5                   1172.9                   1170.8                   548.05                   620.04                   809.49                   841.08                   858.02                   862.02                   555.30                   629.27                   827.34                   859.55                   876.59                   880.53                   624.50                   760.04                   1179.1                   1190.1                   1190.6                   1188.2                   575.36                   658.28                   894.18                   925.92                   941.72                   944.99                   538.75                   607.77                   782.71                   811.81                   827.93                   831.86                   594.91                   691.67                   1006.0                   1035.1                   1045.2                   1046.0                   634.58                   750.02                   1135.7                   1149.3                   1150.8                   1148.8
12.000                   1.5000                   1.5000                   6000.0                   4000.0                   50.000                   582.28                   645.57                   814.82                   842.82                   857.94                   861.48                   630.36                   716.41                   996.68                   1023.1                   1033.0                   1033.9                   663.04                   793.13                   1164.8                   1175.1                   1175.6                   1173.2                   590.53                   656.45                   838.20                   867.16                   882.53                   886.02                   597.90                   665.91                   856.82                   885.82                   901.02                   904.37                   668.90                   810.39                   1179.2                   1187.7                   1187.5                   1184.9                   618.66                   696.56                   931.76                   958.45                   971.25                   973.67                   580.86                   643.78                   810.15                   837.69                   852.63                   856.15                   638.61                   732.06                   1049.5                   1073.1                   1079.8                   1079.3                   679.04                   811.28                   1168.4                   1177.0                   1176.8                   1174.3
12.000                   1.5000                   1.5000                   6000.0                   4000.0                   55.000                   618.66                   676.29                   839.63                   865.48                   879.30                   882.43                   667.44                   753.12                   1039.2                   1061.3                   1067.8                   1067.5                   698.94                   840.43                   1169.3                   1177.2                   1177.0                   1174.5                   627.28                   687.65                   863.78                   889.86                   903.57                   906.55                   634.69                   697.35                   883.60                   909.19                   922.41                   925.18                   704.31                   857.78                   1179.8                   1186.5                   1185.8                   1183.1                   655.73                   730.28                   969.09                   992.14                   1002.2                   1003.6                   617.32                   674.60                   834.91                   860.40                   874.08                   877.20                   675.47                   771.36                   1083.2                   1101.5                   1105.5                   1104.2                   714.37                   876.78                   1191.7                   1197.4                   1196.4                   1193.6
12.000                   1.5000                   1.5000                   6000.0                   4000.0                   60.000                   649.97                   702.29                   861.50                   885.03                   897.54                   900.25                   698.10                   790.68                   1072.5                   1089.8                   1093.8                   1092.7                   727.28                   884.38                   1172.9                   1179.1                   1178.3                   1175.6                   658.85                   714.22                   886.79                   909.87                   921.86                   924.34                   666.21                   724.48                   908.31                   930.38                   941.61                   943.80                   732.38                   900.79                   1181.4                   1186.6                   1185.6                   1182.8                   686.95                   762.95                   1005.5                   1025.9                   1033.3                   1033.7                   648.73                   700.72                   856.97                   880.23                   892.63                   895.34                   705.66                   812.28                   1107.0                   1120.7                   1122.9                   1121.1                   746.72                   939.77                   1210.8                   1214.8                   1213.2                   1210.2
12.000                   1.5000                   1.5000                   6000.0                   4000.0                   65.000                   674.79                   723.64                   879.96                   901.13                   912.31                   914.62                   723.91                   829.00                   1094.4                   1107.8                   1110.1                   1108.5                   758.53                   922.77                   1176.6                   1181.5                   1180.3                   1177.6                   683.78                   737.79                   907.19                   927.32                   937.65                   939.64                   690.99                   750.23                   931.04                   949.92                   959.31                   960.95                   764.97                   937.93                   1184.2                   1188.4                   1187.0                   1184.2                   712.05                   797.38                   1035.9                   1053.5                   1058.8                   1058.3                   673.68                   722.18                   875.86                   896.83                   907.94                   910.25                   733.72                   853.58                   1122.7                   1133.2                   1134.1                   1132.0                   796.83                   994.19                   1228.0                   1230.8                   1228.8                   1225.6
12.000                   1.5000                   1.5000                   6000.0                   4000.0                   70.000                   695.45                   742.50                   896.39                   915.19                   925.05                   926.98                   747.85                   867.01                   1109.8                   1120.2                   1121.3                   1119.4                   795.62                   957.64                   1180.5                   1184.3                   1182.9                   1180.1                   704.47                   760.39                   926.08                   943.35                   952.09                   953.62                   711.50                   776.32                   952.68                   968.70                   976.37                   977.48                   804.61                   971.54                   1187.8                   1191.1                   1189.5                   1186.6                   733.78                   833.16                   1061.3                   1075.7                   1079.2                   1078.0                   694.51                   741.10                   892.85                   911.51                   921.31                   923.25                   762.68                   894.33                   1134.6                   1142.5                   1142.6                   1140.3                   863.51                   1042.7                   1244.4                   1246.4                   1244.0                   1240.7
12.000                   1.5000                   1.5000                   6000.0                   4000.0                   75.000                   713.94                   762.33                   911.70                   928.17                   936.72                   938.27                   776.72                   903.16                   1122.8                   1130.5                   1130.7                   1128.5                   835.47                   989.97                   1184.8                   1187.7                   1186.0                   1183.1                   723.96                   784.69                   944.37                   959.01                   966.24                   967.30                   731.90                   803.91                   974.02                   987.66                   993.77                   994.34                   846.12                   1002.7                   1191.9                   1194.5                   1192.6                   1189.6                   759.15                   868.12                   1082.5                   1094.0                   1095.9                   1094.3                   713.15                   760.99                   908.75                   925.12                   933.63                   935.19                   797.54                   933.12                   1145.5                   1151.2                   1150.5                   1148.0                   926.77                   1086.8                   1260.9                   1262.0                   1259.3                   1255.9