% Model:              batchmodel_COIL_N_12_COIL_kr_1.5_COIL_kh_1.5_FUNZ_freq_2000_FUNZ_I_eff_2500.mph
% Version:            COMSOL 6.0.0.318
% Date:               Feb 8 2022, 18:16
% Table:              Tabella 1 - GRIGLIA_T
% COIL_N                 COIL_kr                  COIL_kh                  FUNZ_freq                FUNZ_I_eff               Time (s)                 Temperatura (degC), Point: (0, 0)Temperatura (degC), Point: (15, 0)Temperatura (degC), Point: (25.641, 0)Temperatura (degC), Point: (27.821, 0)Temperatura (degC), Point: (29.128, 0)Temperatura (degC), Point: (29.99, 0)Temperatura (degC), Point: (0, 62.5)Temperatura (degC), Point: (15, 62.5)Temperatura (degC), Point: (25.641, 62.5)Temperatura (degC), Point: (27.821, 62.5)Temperatura (degC), Point: (29.128, 62.5)Temperatura (degC), Point: (29.99, 62.5)Temperatura (degC), Point: (0, 125)Temperatura (degC), Point: (15, 125)Temperatura (degC), Point: (25.641, 125)Temperatura (degC), Point: (27.821, 125)Temperatura (degC), Point: (29.128, 125)Temperatura (degC), Point: (29.99, 125)Temperatura (degC), Point: (0, 187.5)Temperatura (degC), Point: (15, 187.5)Temperatura (degC), Point: (25.641, 187.5)Temperatura (degC), Point: (27.821, 187.5)Temperatura (degC), Point: (29.128, 187.5)Temperatura (degC), Point: (29.99, 187.5)Temperatura (degC), Point: (0, 250)Temperatura (degC), Point: (15, 250)Temperatura (degC), Point: (25.641, 250)Temperatura (degC), Point: (27.821, 250)Temperatura (degC), Point: (29.128, 250)Temperatura (degC), Point: (29.99, 250)Temperatura (degC), Point: (0, 312.5)Temperatura (degC), Point: (15, 312.5)Temperatura (degC), Point: (25.641, 312.5)Temperatura (degC), Point: (27.821, 312.5)Temperatura (degC), Point: (29.128, 312.5)Temperatura (degC), Point: (29.99, 312.5)Temperatura (degC), Point: (0, 375)Temperatura (degC), Point: (15, 375)Temperatura (degC), Point: (25.641, 375)Temperatura (degC), Point: (27.821, 375)Temperatura (degC), Point: (29.128, 375)Temperatura (degC), Point: (29.99, 375)Temperatura (degC), Point: (0, 437.5)Temperatura (degC), Point: (15, 437.5)Temperatura (degC), Point: (25.641, 437.5)Temperatura (degC), Point: (27.821, 437.5)Temperatura (degC), Point: (29.128, 437.5)Temperatura (degC), Point: (29.99, 437.5)Temperatura (degC), Point: (0, 468.75)Temperatura (degC), Point: (15, 468.75)Temperatura (degC), Point: (25.641, 468.75)Temperatura (degC), Point: (27.821, 468.75)Temperatura (degC), Point: (29.128, 468.75)Temperatura (degC), Point: (29.99, 468.75)Temperatura (degC), Point: (0, 492.19)Temperatura (degC), Point: (15, 492.19)Temperatura (degC), Point: (25.641, 492.19)Temperatura (degC), Point: (27.821, 492.19)Temperatura (degC), Point: (29.128, 492.19)Temperatura (degC), Point: (29.99, 492.19)
12.000                   1.5000                   1.5000                   2000.0                   2500.0                   0.0000                   20.000                   20.000                   20.000                   20.000                   20.003                   20.057                   20.000                   20.000                   20.000                   20.000                   20.007                   20.080                   20.000                   20.000                   20.000                   20.000                   20.011                   20.095                   20.000                   20.000                   20.000                   20.000                   20.003                   20.061                   20.000                   20.000                   20.000                   20.000                   20.004                   20.064                   20.000                   20.000                   20.000                   20.000                   20.012                   20.097                   20.000                   20.000                   20.000                   20.000                   20.006                   20.074                   20.000                   20.000                   20.000                   20.000                   20.003                   20.057                   20.000                   20.000                   20.000                   20.000                   20.008                   20.083                   20.000                   20.000                   20.000                   20.000                   20.008                   20.083
12.000                   1.5000                   1.5000                   2000.0                   2500.0                   5.0000                   21.786                   26.789                   45.548                   52.399                   57.009                   59.178                   22.430                   29.585                   57.036                   67.062                   73.654                   76.611                   22.796                   31.331                   65.908                   78.955                   87.187                   90.806                   21.935                   27.441                   48.628                   56.554                   61.430                   63.683                   22.033                   27.888                   50.769                   59.343                   64.571                   66.971                   22.842                   31.557                   66.835                   80.091                   88.561                   92.258                   22.293                   28.999                   54.768                   64.154                   70.209                   72.970                   21.771                   26.721                   45.180                   51.898                   56.452                   58.604                   22.454                   29.780                   58.551                   69.345                   76.381                   79.528                   23.132                   31.221                   59.392                   69.750                   76.554                   79.556
12.000                   1.5000                   1.5000                   2000.0                   2500.0                   10.000                   32.112                   43.826                   71.647                   79.728                   84.794                   87.129                   35.393                   51.399                   90.948                   102.84                   110.35                   113.56                   37.287                   56.092                   105.22                   120.81                   129.99                   133.91                   32.801                   45.447                   76.757                   86.328                   91.968                   94.376                   33.416                   46.936                   81.023                   91.393                   97.266                   99.752                   37.529                   56.737                   106.62                   122.05                   131.39                   135.32                   34.792                   50.121                   88.391                   99.845                   106.66                   109.63                   31.922                   43.373                   70.440                   78.320                   83.351                   85.627                   35.572                   52.073                   94.134                   107.27                   115.09                   118.42                   38.814                   56.575                   96.672                   108.63                   115.97                   119.10
12.000                   1.5000                   1.5000                   2000.0                   2500.0                   15.000                   49.416                   64.710                   95.646                   104.02                   109.33                   111.66                   55.776                   76.029                   118.79                   130.86                   138.60                   141.77                   59.447                   82.773                   133.43                   148.05                   157.41                   161.08                   50.702                   66.998                   100.46                   109.57                   115.31                   117.81                   51.953                   69.211                   104.71                   114.35                   120.39                   122.99                   59.907                   83.706                   135.48                   150.45                   160.01                   163.77                   54.663                   74.096                   114.72                   125.98                   133.15                   136.13                   48.929                   63.904                   94.258                   102.52                   107.77                   110.09                   56.081                   76.745                   120.84                   133.31                   141.22                   144.44                   61.227                   82.776                   125.63                   137.44                   144.94                   148.04
12.000                   1.5000                   1.5000                   2000.0                   2500.0                   20.000                   70.124                   87.140                   119.94                   128.69                   134.23                   136.59                   78.891                   101.07                   145.90                   158.38                   166.31                   169.49                   83.881                   109.10                   161.51                   176.42                   185.76                   189.31                   71.938                   90.054                   125.62                   135.20                   141.10                   143.64                   73.636                   92.669                   130.04                   140.05                   146.11                   148.72                   84.498                   110.23                   164.00                   179.36                   188.97                   192.63                   77.315                   98.575                   141.08                   152.77                   160.18                   163.16                   69.364                   86.106                   118.48                   127.14                   132.61                   134.98                   79.033                   101.36                   146.76                   159.40                   167.20                   170.26                   85.776                   108.99                   153.29                   165.34                   172.93                   176.00
12.000                   1.5000                   1.5000                   2000.0                   2500.0                   25.000                   92.537                   110.30                   144.35                   153.48                   159.28                   161.73                   103.10                   126.04                   172.29                   185.25                   193.55                   196.83                   109.01                   134.89                   188.43                   203.79                   213.67                   217.44                   94.788                   113.66                   150.21                   160.08                   166.35                   168.97                   96.762                   116.47                   154.79                   165.15                   171.73                   174.46                   109.71                   136.08                   190.81                   206.58                   216.73                   220.59                   101.10                   123.01                   166.59                   178.65                   186.35                   189.44                   91.532                   109.09                   142.79                   151.83                   157.57                   160.01                   102.88                   125.75                   172.38                   185.59                   194.08                   197.43                   110.58                   134.12                   179.37                   191.70                   199.56                   202.69
12.000                   1.5000                   1.5000                   2000.0                   2500.0                   30.000                   115.63                   134.14                   169.65                   179.19                   185.24                   187.78                   127.67                   151.50                   199.67                   213.26                   221.95                   225.33                   134.23                   160.97                   216.51                   232.58                   243.01                   246.97                   118.34                   138.08                   176.42                   186.81                   193.43                   196.13                   120.51                   141.07                   181.31                   192.37                   199.47                   202.27                   135.08                   162.37                   219.41                   236.00                   246.63                   250.62                   125.31                   148.03                   193.30                   205.83                   213.83                   217.01                   114.40                   132.73                   167.87                   177.31                   183.30                   185.80                   127.05                   150.74                   199.34                   213.25                   222.33                   225.84                   135.71                   159.91                   206.49                   219.26                   227.40                   230.59
12.000                   1.5000                   1.5000                   2000.0                   2500.0                   35.000                   139.54                   158.87                   196.01                   206.00                   212.29                   214.88                   152.55                   177.26                   227.38                   241.57                   250.61                   254.06                   159.59                   187.21                   244.87                   261.58                   272.38                   276.44                   142.67                   163.34                   203.85                   214.92                   221.94                   224.69                   144.92                   166.39                   208.88                   220.71                   228.27                   231.14                   160.67                   188.96                   248.53                   265.93                   276.98                   281.03                   150.08                   173.75                   221.14                   234.26                   242.56                   245.81                   138.15                   157.31                   194.11                   204.02                   210.28                   212.85                   151.72                   176.33                   227.12                   241.71                   251.22                   254.83                   161.09                   186.05                   234.08                   247.28                   255.65                   258.86
12.000                   1.5000                   1.5000                   2000.0                   2500.0                   40.000                   164.33                   184.53                   223.50                   233.96                   240.48                   243.12                   177.76                   203.34                   255.41                   270.15                   279.47                   282.95                   185.10                   213.63                   273.45                   290.72                   301.68                   305.75                   167.81                   189.48                   232.55                   244.46                   251.91                   254.72                   170.02                   192.48                   237.50                   250.16                   258.12                   261.05                   186.48                   215.85                   278.12                   296.31                   307.69                   311.74                   175.46                   200.20                   250.16                   264.01                   272.62                   275.92                   162.85                   182.91                   221.62                   232.05                   238.63                   241.28                   176.90                   202.55                   255.72                   270.96                   280.73                   284.36                   186.74                   212.53                   262.11                   275.73                   284.26                   287.48
12.000                   1.5000                   1.5000                   2000.0                   2500.0                   45.000                   189.11                   210.20                   251.00                   261.92                   268.68                   271.35                   202.97                   229.42                   283.43                   298.72                   308.33                   311.85                   210.60                   240.05                   302.03                   319.87                   330.97                   335.05                   192.95                   215.63                   261.25                   274.00                   281.88                   284.74                   195.13                   218.56                   266.11                   279.60                   287.96                   290.96                   212.29                   242.73                   307.71                   326.68                   338.39                   342.45                   200.85                   226.66                   279.18                   293.77                   302.68                   306.03                   187.54                   208.51                   249.13                   260.08                   266.97                   269.70                   202.09                   228.76                   284.32                   300.21                   310.25                   313.90                   212.38                   239.01                   290.14                   304.19                   312.88                   316.11
12.000                   1.5000                   1.5000                   2000.0                   2500.0                   50.000                   214.04                   236.01                   278.79                   290.31                   297.44                   300.19                   228.20                   255.56                   311.66                   327.60                   337.57                   341.14                   236.06                   266.43                   330.62                   349.15                   360.62                   364.71                   218.12                   241.69                   289.27                   302.61                   310.84                   313.78                   220.27                   244.59                   294.09                   308.15                   316.83                   319.89                   237.93                   269.31                   336.44                   356.09                   368.15                   372.24                   226.17                   252.91                   307.55                   322.81                   332.13                   335.52                   212.34                   234.18                   276.74                   288.28                   295.54                   298.34                   227.05                   254.61                   312.16                   328.67                   339.03                   342.70                   237.37                   264.64                   317.17                   331.63                   340.55                   343.79
12.000                   1.5000                   1.5000                   2000.0                   2500.0                   55.000                   239.10                   261.96                   306.83                   319.08                   326.72                   329.56                   253.47                   281.75                   340.06                   356.74                   367.17                   370.80                   261.46                   292.79                   359.20                   378.57                   390.57                   394.68                   243.31                   267.68                   316.69                   330.40                   338.91                   341.93                   245.44                   270.57                   321.50                   335.88                   344.82                   347.96                   263.40                   295.62                   364.42                   384.62                   397.07                   401.21                   251.43                   278.97                   335.35                   351.23                   361.02                   364.48                   237.22                   259.91                   304.45                   316.64                   324.30                   327.17                   251.83                   280.12                   339.33                   356.43                   367.14                   370.85                   261.78                   289.52                   343.30                   358.16                   367.37                   370.63
12.000                   1.5000                   1.5000                   2000.0                   2500.0                   60.000                   264.15                   287.90                   334.87                   347.85                   355.99                   358.93                   278.73                   307.93                   368.46                   385.88                   396.76                   400.45                   286.87                   319.15                   387.79                   407.98                   420.52                   424.65                   268.50                   293.67                   344.11                   358.18                   366.98                   370.08                   270.61                   296.55                   348.91                   363.62                   372.82                   376.02                   288.88                   321.92                   392.40                   413.16                   426.00                   430.17                   276.69                   305.04                   363.15                   379.65                   389.91                   393.43                   262.09                   285.65                   332.16                   345.00                   353.07                   355.99                   276.61                   305.62                   366.51                   384.18                   395.25                   399.00                   286.20                   314.39                   369.43                   384.70                   394.20                   397.47
12.000                   1.5000                   1.5000                   2000.0                   2500.0                   65.000                   288.40                   312.81                   361.28                   374.76                   383.24                   386.23                   303.35                   333.38                   395.89                   414.00                   425.31                   429.06                   311.63                   344.74                   415.25                   435.98                   448.85                   453.01                   293.07                   318.94                   370.66                   384.96                   393.88                   397.02                   295.05                   321.65                   375.15                   390.01                   399.28                   402.53                   313.53                   347.27                   419.12                   440.23                   453.27                   457.49                   301.27                   330.35                   390.12                   407.21                   417.89                   421.47                   286.21                   310.46                   358.55                   371.89                   380.27                   383.23                   300.52                   330.15                   392.46                   410.65                   422.03                   425.83                   309.87                   338.52                   394.68                   410.31                   420.07                   423.37
12.000                   1.5000                   1.5000                   2000.0                   2500.0                   70.000                   312.07                   336.99                   386.54                   400.36                   409.04                   412.06                   327.51                   358.29                   422.62                   441.38                   453.12                   456.93                   335.92                   369.78                   441.91                   462.98                   476.03                   480.22                   317.20                   343.70                   396.59                   411.05                   419.96                   423.12                   318.98                   346.14                   400.56                   415.46                   424.66                   427.93                   337.60                   371.93                   444.95                   466.26                   479.38                   483.64                   325.37                   355.13                   416.50                   434.16                   445.23                   448.87                   309.79                   334.62                   384.00                   397.76                   406.37                   409.36                   323.83                   353.97                   417.54                   436.22                   447.88                   451.74                   333.04                   362.13                   419.29                   435.27                   445.26                   448.59
12.000                   1.5000                   1.5000                   2000.0                   2500.0                   75.000                   335.74                   361.17                   411.80                   425.96                   434.85                   437.90                   351.68                   383.20                   449.35                   468.76                   480.93                   484.80                   360.22                   394.82                   468.57                   489.97                   503.21                   507.44                   341.32                   368.46                   422.52                   437.13                   446.04                   449.22                   342.90                   370.63                   425.97                   440.90                   450.04                   453.33                   361.68                   396.60                   470.77                   492.29                   505.49                   509.79                   349.47                   379.90                   442.89                   461.12                   472.57                   476.27                   333.38                   358.78                   409.45                   423.62                   432.46                   435.48                   347.15                   377.80                   442.63                   461.79                   473.72                   477.64                   356.20                   385.74                   443.90                   460.22                   470.45                   473.82