% Model:              batchmodel_COIL_N_12_COIL_kr_2.25_COIL_kh_1.5_FUNZ_freq_6000_FUNZ_I_eff_4000.mph
% Version:            COMSOL 6.0.0.318
% Date:               Feb 8 2022, 19:44
% Table:              Tabella 1 - GRIGLIA_T
% COIL_N                 COIL_kr                  COIL_kh                  FUNZ_freq                FUNZ_I_eff               Time (s)                 Temperatura (degC), Point: (0, 0)Temperatura (degC), Point: (15, 0)Temperatura (degC), Point: (27.483, 0)Temperatura (degC), Point: (28.742, 0)Temperatura (degC), Point: (29.497, 0)Temperatura (degC), Point: (29.99, 0)Temperatura (degC), Point: (0, 62.5)Temperatura (degC), Point: (15, 62.5)Temperatura (degC), Point: (27.483, 62.5)Temperatura (degC), Point: (28.742, 62.5)Temperatura (degC), Point: (29.497, 62.5)Temperatura (degC), Point: (29.99, 62.5)Temperatura (degC), Point: (0, 125)Temperatura (degC), Point: (15, 125)Temperatura (degC), Point: (27.483, 125)Temperatura (degC), Point: (28.742, 125)Temperatura (degC), Point: (29.497, 125)Temperatura (degC), Point: (29.99, 125)Temperatura (degC), Point: (0, 187.5)Temperatura (degC), Point: (15, 187.5)Temperatura (degC), Point: (27.483, 187.5)Temperatura (degC), Point: (28.742, 187.5)Temperatura (degC), Point: (29.497, 187.5)Temperatura (degC), Point: (29.99, 187.5)Temperatura (degC), Point: (0, 250)Temperatura (degC), Point: (15, 250)Temperatura (degC), Point: (27.483, 250)Temperatura (degC), Point: (28.742, 250)Temperatura (degC), Point: (29.497, 250)Temperatura (degC), Point: (29.99, 250)Temperatura (degC), Point: (0, 312.5)Temperatura (degC), Point: (15, 312.5)Temperatura (degC), Point: (27.483, 312.5)Temperatura (degC), Point: (28.742, 312.5)Temperatura (degC), Point: (29.497, 312.5)Temperatura (degC), Point: (29.99, 312.5)Temperatura (degC), Point: (0, 375)Temperatura (degC), Point: (15, 375)Temperatura (degC), Point: (27.483, 375)Temperatura (degC), Point: (28.742, 375)Temperatura (degC), Point: (29.497, 375)Temperatura (degC), Point: (29.99, 375)Temperatura (degC), Point: (0, 437.5)Temperatura (degC), Point: (15, 437.5)Temperatura (degC), Point: (27.483, 437.5)Temperatura (degC), Point: (28.742, 437.5)Temperatura (degC), Point: (29.497, 437.5)Temperatura (degC), Point: (29.99, 437.5)Temperatura (degC), Point: (0, 468.75)Temperatura (degC), Point: (15, 468.75)Temperatura (degC), Point: (27.483, 468.75)Temperatura (degC), Point: (28.742, 468.75)Temperatura (degC), Point: (29.497, 468.75)Temperatura (degC), Point: (29.99, 468.75)Temperatura (degC), Point: (0, 492.19)Temperatura (degC), Point: (15, 492.19)Temperatura (degC), Point: (27.483, 492.19)Temperatura (degC), Point: (28.742, 492.19)Temperatura (degC), Point: (29.497, 492.19)Temperatura (degC), Point: (29.99, 492.19)
12.000                   2.2500                   1.5000                   6000.0                   4000.0                   0.0000                   20.000                   20.000                   20.000                   20.000                   20.057                   20.317                   20.000                   20.000                   20.000                   20.000                   20.072                   20.359                   20.000                   20.000                   20.000                   20.000                   20.080                   20.381                   20.000                   20.000                   20.000                   20.000                   20.061                   20.326                   20.000                   20.000                   20.000                   20.000                   20.064                   20.332                   20.000                   20.000                   20.000                   20.000                   20.081                   20.384                   20.000                   20.000                   20.000                   20.000                   20.069                   20.349                   20.000                   20.000                   20.000                   20.000                   20.057                   20.315                   20.000                   20.000                   20.000                   20.000                   20.073                   20.361                   20.000                   20.000                   20.000                   20.000                   20.070                   20.354
12.000                   2.2500                   1.5000                   6000.0                   4000.0                   5.0000                   28.589                   54.622                   191.71                   217.83                   234.06                   239.88                   29.270                   57.729                   210.87                   241.03                   259.86                   266.54                   29.553                   58.928                   217.17                   248.11                   267.25                   273.99                   28.746                   55.620                   203.12                   230.24                   246.90                   252.80                   28.790                   55.781                   205.29                   233.67                   250.87                   256.98                   29.654                   59.348                   219.38                   250.78                   270.19                   277.16                   29.177                   57.408                   210.07                   239.24                   257.26                   263.69                   28.567                   54.720                   194.68                   220.87                   236.87                   242.67                   29.257                   57.282                   206.80                   236.40                   254.70                   261.19                   37.173                   67.422                   205.88                   231.95                   247.91                   253.72
12.000                   2.2500                   1.5000                   6000.0                   4000.0                   10.000                   76.212                   137.48                   351.81                   389.79                   412.65                   419.57                   79.341                   144.90                   380.46                   423.15                   448.77                   456.54                   80.159                   146.68                   387.93                   431.56                   456.94                   465.09                   77.092                   139.80                   361.44                   397.85                   419.66                   427.09                   77.220                   140.01                   362.06                   400.58                   424.28                   431.33                   80.970                   148.78                   397.23                   442.48                   468.93                   477.27                   78.998                   144.36                   377.79                   418.35                   442.00                   449.71                   76.383                   138.12                   355.69                   392.19                   414.28                   421.40                   78.979                   142.63                   369.20                   410.39                   434.60                   442.16                   97.869                   160.12                   356.98                   390.42                   410.62                   417.03
12.000                   2.2500                   1.5000                   6000.0                   4000.0                   15.000                   150.42                   233.70                   496.19                   540.43                   565.82                   573.18                   155.97                   244.30                   531.19                   581.69                   610.32                   618.21                   157.26                   247.01                   545.40                   597.97                   627.42                   635.94                   152.09                   237.17                   510.86                   555.91                   582.24                   590.29                   152.13                   236.90                   508.40                   553.81                   580.18                   587.74                   159.24                   250.87                   553.37                   605.58                   634.60                   643.00                   155.53                   243.64                   526.31                   573.57                   600.67                   608.72                   150.83                   235.01                   507.69                   553.62                   580.20                   587.75                   154.48                   239.28                   509.86                   555.87                   581.95                   589.63                   177.72                   256.47                   484.87                   522.04                   543.60                   549.73
12.000                   2.2500                   1.5000                   6000.0                   4000.0                   20.000                   236.14                   330.54                   626.68                   679.73                   709.05                   716.95                   243.18                   342.54                   659.53                   717.95                   750.37                   758.97                   244.93                   346.16                   673.67                   735.65                   770.26                   779.35                   238.35                   334.45                   637.03                   691.35                   721.31                   729.36                   238.25                   334.13                   637.33                   692.23                   722.45                   730.57                   247.91                   350.76                   681.80                   744.95                   780.30                   789.49                   242.68                   341.56                   654.60                   711.74                   743.41                   751.82                   236.50                   331.44                   628.39                   680.99                   710.06                   717.89                   239.63                   334.45                   635.17                   689.58                   719.62                   727.69                   255.68                   342.58                   590.76                   631.46                   654.53                   660.97
12.000                   2.2500                   1.5000                   6000.0                   4000.0                   25.000                   320.27                   420.84                   732.62                   794.05                   827.62                   836.02                   328.05                   433.30                   773.63                   846.94                   885.02                   894.03                   330.27                   437.70                   796.26                   876.13                   915.98                   925.18                   322.70                   424.63                   742.65                   806.71                   841.41                   849.99                   322.62                   424.69                   745.41                   810.72                   845.92                   854.59                   333.70                   442.28                   807.02                   888.61                   928.74                   937.90                   327.46                   431.99                   766.19                   837.10                   874.36                   883.26                   320.17                   420.71                   730.78                   791.43                   824.69                   833.04                   322.08                   422.43                   739.96                   804.57                   839.65                   848.35                   330.49                   422.55                   680.93                   724.16                   748.56                   755.02
12.000                   2.2500                   1.5000                   6000.0                   4000.0                   30.000                   398.84                   501.11                   825.69                   891.09                   923.33                   930.59                   407.03                   514.28                   871.01                   938.71                   970.26                   977.00                   409.82                   520.84                   930.00                   1001.3                   1029.9                   1035.0                   401.28                   504.79                   837.71                   904.32                   936.61                   943.79                   401.38                   505.31                   841.87                   909.03                   941.38                   948.54                   413.31                   525.72                   994.74                   1070.7                   1093.0                   1095.5                   406.26                   512.55                   863.95                   931.91                   963.82                   970.70                   398.14                   500.15                   825.10                   891.39                   924.10                   931.48                   398.61                   500.92                   845.16                   918.05                   952.88                   960.56                   401.50                   494.66                   748.30                   793.36                   818.57                   824.84
12.000                   2.2500                   1.5000                   6000.0                   4000.0                   35.000                   468.35                   569.21                   900.66                   959.81                   987.55                   993.33                   477.19                   582.71                   914.45                   964.96                   988.59                   993.41                   481.40                   595.53                   1039.4                   1084.0                   1095.7                   1096.0                   470.76                   572.61                   907.86                   966.29                   993.57                   999.19                   471.08                   573.31                   908.97                   966.86                   993.89                   999.46                   484.96                   601.88                   1100.8                   1136.7                   1144.5                   1143.6                   476.08                   580.33                   914.35                   967.94                   993.00                   998.11                   467.21                   568.12                   899.91                   958.48                   985.92                   991.63                   466.66                   570.08                   1011.0                   1083.6                   1103.6                   1105.4                   465.26                   556.45                   803.58                   847.52                   870.41                   875.78
12.000                   2.2500                   1.5000                   6000.0                   4000.0                   40.000                   529.46                   626.51                   965.50                   1016.0                   1037.1                   1040.7                   539.24                   639.47                   947.60                   986.43                   1004.3                   1007.6                   545.68                   658.99                   1085.3                   1113.0                   1119.1                   1118.1                   531.79                   629.01                   959.29                   1008.7                   1030.2                   1034.0                   532.28                   629.59                   955.86                   1004.4                   1025.8                   1029.7                   549.40                   666.41                   1118.7                   1141.2                   1145.1                   1143.5                   537.61                   636.21                   946.58                   988.76                   1008.3                   1012.0                   528.03                   624.60                   943.64                   991.19                   1013.0                   1017.2                   527.83                   633.09                   1106.1                   1140.5                   1147.7                   1146.6                   521.70                   607.89                   841.18                   878.95                   898.44                   902.83
12.000                   2.2500                   1.5000                   6000.0                   4000.0                   45.000                   581.90                   674.97                   1045.5                   1083.7                   1093.7                   1093.7                   592.06                   685.46                   972.54                   1002.4                   1015.4                   1017.4                   600.43                   709.33                   1098.4                   1118.3                   1121.9                   1120.5                   583.87                   674.93                   971.96                   1006.1                   1020.7                   1023.1                   584.45                   675.06                   964.18                   997.95                   1013.1                   1015.8                   604.15                   716.85                   1117.6                   1134.1                   1136.5                   1134.6                   589.94                   681.24                   960.92                   992.35                   1006.8                   1009.3                   579.98                   670.36                   968.69                   1005.0                   1020.7                   1023.3                   581.57                   686.18                   1116.6                   1139.3                   1143.4                   1141.8                   570.35                   649.86                   872.57                   906.47                   923.82                   927.56
12.000                   2.2500                   1.5000                   6000.0                   4000.0                   50.000                   627.10                   716.41                   1075.6                   1101.3                   1106.9                   1105.9                   636.97                   723.71                   999.04                   1023.9                   1033.3                   1034.2                   646.61                   751.71                   1104.6                   1119.6                   1121.9                   1120.1                   628.51                   712.97                   985.30                   1011.2                   1021.8                   1023.1                   629.08                   712.56                   973.00                   998.24                   1009.5                   1011.2                   650.19                   759.87                   1115.8                   1128.6                   1130.0                   1128.0                   634.49                   718.46                   976.33                   1000.9                   1011.8                   1013.4                   624.56                   708.49                   989.29                   1017.5                   1028.6                   1029.9                   628.19                   730.39                   1119.0                   1135.7                   1138.1                   1136.3                   612.61                   685.57                   900.58                   930.67                   945.95                   949.10
12.000                   2.2500                   1.5000                   6000.0                   4000.0                   55.000                   665.46                   752.52                   1084.2                   1103.0                   1106.7                   1105.3                   674.54                   758.01                   1026.3                   1047.3                   1053.9                   1053.8                   684.58                   791.81                   1108.0                   1119.7                   1120.9                   1118.9                   666.23                   745.57                   1001.3                   1022.4                   1030.4                   1031.0                   666.75                   744.61                   986.65                   1006.8                   1015.3                   1016.3                   687.83                   800.62                   1114.8                   1124.9                   1125.6                   1123.5                   671.88                   751.05                   996.48                   1016.8                   1024.9                   1025.7                   662.33                   740.86                   1005.6                   1028.7                   1036.9                   1037.4                   667.76                   769.97                   1118.9                   1131.7                   1133.2                   1131.2                   648.99                   715.88                   925.29                   951.38                   964.57                   967.13
12.000                   2.2500                   1.5000                   6000.0                   4000.0                   60.000                   694.79                   785.75                   1083.9                   1099.1                   1101.8                   1100.3                   703.05                   792.47                   1048.1                   1065.3                   1069.8                   1069.0                   713.06                   829.26                   1109.3                   1118.6                   1119.2                   1117.1                   695.09                   776.97                   1017.7                   1035.6                   1041.6                   1041.5                   695.57                   775.92                   1004.9                   1021.8                   1028.2                   1028.5                   716.07                   837.86                   1114.1                   1122.3                   1122.5                   1120.4                   700.32                   783.84                   1019.3                   1036.7                   1042.5                   1042.4                   691.37                   770.92                   1017.4                   1036.8                   1043.3                   1043.3                   697.98                   807.07                   1117.5                   1127.8                   1128.6                   1126.5                   678.12                   742.80                   947.50                   969.74                   980.76                   982.70
12.000                   2.2500                   1.5000                   6000.0                   4000.0                   65.000                   717.11                   817.37                   1079.6                   1092.5                   1094.6                   1093.0                   724.83                   827.53                   1064.2                   1077.7                   1080.5                   1079.2                   735.19                   863.58                   1109.4                   1117.0                   1117.1                   1114.9                   717.11                   808.84                   1033.8                   1048.9                   1053.3                   1052.6                   717.58                   808.34                   1026.1                   1040.8                   1045.3                   1044.8                   738.30                   871.54                   1113.5                   1120.3                   1120.1                   1117.8                   722.04                   818.01                   1042.2                   1056.7                   1060.6                   1059.8                   713.70                   800.72                   1027.5                   1044.0                   1049.1                   1048.7                   720.94                   841.73                   1115.6                   1124.0                   1124.3                   1122.1                   701.78                   769.06                   969.02                   987.70                   996.56                   997.85
12.000                   2.2500                   1.5000                   6000.0                   4000.0                   70.000                   738.50                   847.33                   1077.0                   1087.8                   1089.4                   1087.7                   748.52                   861.42                   1076.5                   1086.9                   1088.4                   1086.8                   761.77                   895.09                   1110.3                   1116.4                   1116.1                   1113.8                   738.56                   840.49                   1048.1                   1060.5                   1063.5                   1062.3                   739.29                   840.81                   1044.6                   1056.8                   1059.8                   1058.8                   765.55                   902.30                   1113.9                   1119.4                   1118.8                   1116.5                   744.83                   851.73                   1060.2                   1071.9                   1074.2                   1072.9                   734.49                   830.63                   1038.0                   1051.9                   1055.7                   1054.9                   744.10                   873.11                   1113.3                   1120.3                   1120.1                   1117.9                   722.34                   799.81                   1000.7                   1016.7                   1023.1                   1023.5
12.000                   2.2500                   1.5000                   6000.0                   4000.0                   75.000                   759.17                   875.98                   1075.7                   1084.6                   1085.7                   1083.9                   773.70                   894.39                   1085.9                   1093.7                   1094.2                   1092.3                   791.85                   924.41                   1111.9                   1116.7                   1116.0                   1113.7                   759.57                   871.96                   1060.9                   1070.8                   1072.5                   1071.0                   760.77                   873.32                   1060.9                   1070.6                   1072.3                   1070.8                   796.74                   930.79                   1115.2                   1119.5                   1118.6                   1116.3                   768.46                   885.09                   1074.5                   1083.3                   1084.3                   1082.6                   754.06                   860.63                   1048.9                   1060.3                   1062.9                   1061.7                   767.40                   901.92                   1110.7                   1116.5                   1116.0                   1113.7                   740.47                   834.12                   1040.5                   1054.4                   1058.1                   1057.3