% Model:              batchmodel_COIL_N_12_COIL_kr_3_COIL_kh_1_FUNZ_freq_2000_FUNZ_I_eff_4000.mph
% Version:            COMSOL 6.0.0.318
% Date:               Feb 8 2022, 19:58
% Table:              Tabella 1 - GRIGLIA_T
% COIL_N                 COIL_kr                  COIL_kh                  FUNZ_freq                FUNZ_I_eff               Time (s)                 Temperatura (degC), Point: (0, 0)Temperatura (degC), Point: (15, 0)Temperatura (degC), Point: (25.641, 0)Temperatura (degC), Point: (27.821, 0)Temperatura (degC), Point: (29.128, 0)Temperatura (degC), Point: (29.99, 0)Temperatura (degC), Point: (0, 62.5)Temperatura (degC), Point: (15, 62.5)Temperatura (degC), Point: (25.641, 62.5)Temperatura (degC), Point: (27.821, 62.5)Temperatura (degC), Point: (29.128, 62.5)Temperatura (degC), Point: (29.99, 62.5)Temperatura (degC), Point: (0, 125)Temperatura (degC), Point: (15, 125)Temperatura (degC), Point: (25.641, 125)Temperatura (degC), Point: (27.821, 125)Temperatura (degC), Point: (29.128, 125)Temperatura (degC), Point: (29.99, 125)Temperatura (degC), Point: (0, 187.5)Temperatura (degC), Point: (15, 187.5)Temperatura (degC), Point: (25.641, 187.5)Temperatura (degC), Point: (27.821, 187.5)Temperatura (degC), Point: (29.128, 187.5)Temperatura (degC), Point: (29.99, 187.5)Temperatura (degC), Point: (0, 250)Temperatura (degC), Point: (15, 250)Temperatura (degC), Point: (25.641, 250)Temperatura (degC), Point: (27.821, 250)Temperatura (degC), Point: (29.128, 250)Temperatura (degC), Point: (29.99, 250)Temperatura (degC), Point: (0, 312.5)Temperatura (degC), Point: (15, 312.5)Temperatura (degC), Point: (25.641, 312.5)Temperatura (degC), Point: (27.821, 312.5)Temperatura (degC), Point: (29.128, 312.5)Temperatura (degC), Point: (29.99, 312.5)Temperatura (degC), Point: (0, 375)Temperatura (degC), Point: (15, 375)Temperatura (degC), Point: (25.641, 375)Temperatura (degC), Point: (27.821, 375)Temperatura (degC), Point: (29.128, 375)Temperatura (degC), Point: (29.99, 375)Temperatura (degC), Point: (0, 437.5)Temperatura (degC), Point: (15, 437.5)Temperatura (degC), Point: (25.641, 437.5)Temperatura (degC), Point: (27.821, 437.5)Temperatura (degC), Point: (29.128, 437.5)Temperatura (degC), Point: (29.99, 437.5)Temperatura (degC), Point: (0, 468.75)Temperatura (degC), Point: (15, 468.75)Temperatura (degC), Point: (25.641, 468.75)Temperatura (degC), Point: (27.821, 468.75)Temperatura (degC), Point: (29.128, 468.75)Temperatura (degC), Point: (29.99, 468.75)Temperatura (degC), Point: (0, 492.19)Temperatura (degC), Point: (15, 492.19)Temperatura (degC), Point: (25.641, 492.19)Temperatura (degC), Point: (27.821, 492.19)Temperatura (degC), Point: (29.128, 492.19)Temperatura (degC), Point: (29.99, 492.19)
12.000                   3.0000                   1.0000                   2000.0                   4000.0                   0.0000                   20.000                   20.000                   20.000                   20.000                   20.020                   20.119                   20.000                   20.000                   20.000                   20.000                   20.021                   20.123                   20.000                   20.000                   20.000                   20.000                   20.021                   20.124                   20.000                   20.000                   20.000                   20.000                   20.020                   20.120                   20.000                   20.000                   20.000                   20.000                   20.020                   20.121                   20.000                   20.000                   20.000                   20.000                   20.021                   20.124                   20.000                   20.000                   20.000                   20.000                   20.020                   20.121                   20.000                   20.000                   20.000                   20.000                   20.019                   20.118                   20.000                   20.000                   20.000                   20.000                   20.018                   20.114                   20.000                   20.000                   20.000                   20.000                   20.010                   20.092
12.000                   3.0000                   1.0000                   2000.0                   4000.0                   5.0000                   24.300                   37.236                   91.134                   111.60                   124.48                   129.60                   24.393                   37.672                   92.997                   114.05                   127.49                   132.89                   24.430                   37.814                   93.553                   114.72                   128.28                   133.80                   24.305                   37.227                   90.647                   110.54                   123.35                   128.47                   24.353                   37.451                   91.444                   111.70                   125.02                   130.35                   24.434                   37.839                   93.538                   114.84                   128.72                   134.13                   24.281                   37.160                   90.452                   110.15                   123.06                   128.31                   24.128                   36.524                   87.249                   106.04                   118.13                   123.05                   23.794                   35.181                   82.144                   99.438                   110.22                   114.28                   24.874                   35.612                   71.003                   83.001                   89.875                   92.771
12.000                   3.0000                   1.0000                   2000.0                   4000.0                   10.000                   48.240                   77.874                   150.50                   172.69                   186.86                   192.08                   48.744                   79.046                   153.58                   176.49                   190.90                   196.09                   48.934                   79.440                   154.29                   177.19                   191.74                   197.02                   48.293                   78.001                   151.01                   173.31                   187.42                   192.57                   48.558                   78.536                   151.75                   174.10                   188.34                   193.54                   48.984                   79.627                   154.67                   177.48                   191.88                   197.19                   48.025                   77.522                   149.93                   172.08                   186.22                   191.35                   46.853                   75.041                   144.15                   165.41                   179.12                   184.20                   44.356                   69.724                   132.28                   151.53                   163.82                   168.57                   45.064                   66.878                   113.90                   127.50                   136.22                   139.82
12.000                   3.0000                   1.0000                   2000.0                   4000.0                   15.000                   86.620                   124.26                   207.65                   232.18                   247.59                   253.07                   87.286                   125.32                   209.42                   234.14                   248.99                   254.18                   87.641                   125.93                   210.33                   235.01                   250.18                   255.46                   86.663                   124.39                   208.38                   233.01                   248.07                   253.26                   86.766                   124.24                   206.25                   230.15                   245.03                   250.20                   87.580                   125.72                   208.82                   232.71                   247.19                   252.62                   86.020                   123.46                   206.35                   230.29                   245.15                   250.42                   83.167                   119.00                   198.29                   221.78                   236.49                   241.74                   77.010                   108.86                   178.63                   198.48                   210.30                   215.06                   75.962                   103.65                   157.53                   172.21                   180.98                   184.70
12.000                   3.0000                   1.0000                   2000.0                   4000.0                   20.000                   130.29                   172.73                   264.06                   291.24                   308.24                   313.95                   130.91                   173.68                   266.12                   293.81                   311.12                   316.91                   131.38                   174.45                   267.60                   295.54                   313.00                   318.84                   130.19                   172.63                   264.03                   291.23                   308.22                   313.93                   129.95                   172.06                   262.81                   289.97                   307.00                   312.73                   131.13                   173.97                   266.48                   294.27                   311.67                   317.50                   129.26                   171.50                   262.55                   289.71                   306.72                   312.44                   124.38                   164.66                   250.98                   276.54                   292.59                   298.08                   114.08                   149.61                   225.44                   247.82                   262.04                   267.09                   109.10                   138.66                   195.19                   210.49                   220.14                   223.82
12.000                   3.0000                   1.0000                   2000.0                   4000.0                   25.000                   175.98                   222.35                   322.35                   352.36                   370.66                   376.76                   176.33                   222.70                   322.47                   352.31                   370.82                   377.02                   176.94                   223.67                   324.13                   354.22                   372.76                   378.96                   175.66                   221.93                   321.60                   351.31                   369.88                   376.02                   175.10                   221.02                   320.36                   350.55                   369.34                   375.52                   176.54                   223.14                   323.61                   353.76                   372.46                   378.69                   174.53                   220.66                   320.17                   350.11                   368.78                   374.99                   167.37                   211.26                   305.15                   333.03                   350.38                   356.20                   152.88                   191.46                   273.59                   297.86                   313.20                   318.49                   144.16                   175.88                   237.21                   254.03                   264.49                   268.19
12.000                   3.0000                   1.0000                   2000.0                   4000.0                   30.000                   223.36                   273.23                   382.37                   415.55                   435.50                   441.72                   223.61                   273.63                   383.37                   416.83                   437.08                   443.38                   224.26                   274.65                   385.21                   418.96                   439.30                   445.63                   222.87                   272.65                   381.59                   414.66                   434.73                   440.97                   222.23                   271.83                   380.77                   414.14                   434.38                   440.65                   223.79                   274.07                   384.59                   418.36                   438.77                   445.11                   221.56                   271.20                   379.91                   413.03                   433.11                   439.38                   211.73                   258.61                   360.15                   390.70                   409.35                   415.27                   192.93                   233.84                   321.72                   347.99                   364.37                   369.77                   179.93                   212.68                   275.94                   293.22                   303.95                   307.72
12.000                   3.0000                   1.0000                   2000.0                   4000.0                   35.000                   270.65                   323.99                   442.13                   478.45                   499.95                   506.28                   270.85                   324.49                   443.93                   480.87                   502.75                   509.17                   271.54                   325.55                   445.90                   483.15                   505.17                   511.62                   270.02                   323.29                   441.38                   477.72                   499.25                   505.59                   269.34                   322.57                   440.91                   477.43                   499.07                   505.44                   270.99                   324.93                   445.23                   482.47                   504.49                   510.94                   268.52                   321.64                   439.41                   475.68                   497.16                   503.49                   255.98                   305.82                   414.89                   448.05                   467.96                   473.96                   232.89                   276.09                   369.69                   397.94                   415.28                   420.77                   215.72                   249.53                   314.85                   332.67                   343.71                   347.54
12.000                   3.0000                   1.0000                   2000.0                   4000.0                   40.000                   317.72                   374.49                   501.27                   540.57                   563.38                   569.83                   317.99                   375.19                   503.62                   543.65                   566.92                   573.46                   318.68                   376.22                   505.57                   545.92                   569.30                   575.86                   317.02                   373.75                   500.61                   540.04                   562.92                   569.37                   316.39                   373.15                   500.34                   539.92                   562.88                   569.37                   318.09                   375.59                   504.95                   545.33                   568.70                   575.25                   315.30                   371.84                   498.31                   537.61                   560.46                   566.91                   299.94                   352.68                   468.94                   504.57                   525.58                   531.68                   272.60                   318.02                   417.26                   447.36                   465.53                   471.05                   251.56                   286.49                   354.24                   372.81                   384.23                   388.09
12.000                   3.0000                   1.0000                   2000.0                   4000.0                   45.000                   364.19                   424.26                   559.68                   602.22                   626.48                   633.04                   364.53                   425.14                   562.41                   605.77                   630.54                   637.21                   365.21                   426.15                   564.34                   608.04                   632.91                   639.58                   363.44                   423.50                   559.10                   601.85                   626.21                   632.78                   362.87                   423.02                   558.98                   601.87                   626.27                   632.88                   364.58                   425.51                   563.79                   607.56                   632.41                   639.06                   361.49                   421.34                   556.45                   599.02                   623.35                   629.91                   343.44                   399.00                   522.48                   560.64                   582.80                   588.98                   312.01                   359.63                   464.47                   496.46                   515.48                   521.04                   287.25                   323.30                   393.44                   412.73                   424.52                   428.39
12.000                   3.0000                   1.0000                   2000.0                   4000.0                   50.000                   409.97                   473.24                   617.25                   663.33                   689.20                   695.89                   410.39                   474.26                   620.19                   667.13                   693.55                   700.35                   411.06                   475.24                   622.11                   669.43                   695.93                   702.71                   409.20                   472.48                   616.74                   663.09                   689.07                   695.77                   408.69                   472.09                   616.75                   663.21                   689.21                   695.94                   410.41                   474.60                   621.63                   669.07                   695.56                   702.32                   407.02                   470.05                   613.75                   659.84                   685.77                   692.45                   386.45                   444.72                   575.45                   616.20                   639.56                   645.81                   351.08                   400.88                   511.28                   545.20                   565.07                   570.69                   322.77                   359.94                   432.43                   452.41                   464.55                   468.41
12.000                   3.0000                   1.0000                   2000.0                   4000.0                   55.000                   453.21                   518.38                   666.11                   714.43                   741.75                   748.53                   453.72                   519.52                   669.31                   718.76                   746.80                   753.71                   454.37                   520.48                   671.26                   721.25                   749.45                   756.36                   452.43                   517.64                   665.66                   714.26                   741.67                   748.45                   451.99                   517.33                   665.69                   714.35                   741.75                   748.58                   453.71                   519.87                   670.87                   721.03                   749.27                   756.16                   450.04                   515.01                   662.47                   710.70                   737.95                   744.70                   427.46                   487.85                   623.31                   666.00                   690.10                   696.31                   388.88                   440.58                   555.59                   591.04                   611.59                   617.21                   357.58                   395.73                   470.41                   491.07                   503.50                   507.34
12.000                   3.0000                   1.0000                   2000.0                   4000.0                   60.000                   495.09                   561.49                   710.35                   760.21                   788.91                   795.76                   495.71                   562.75                   713.81                   765.21                   794.86                   801.87                   496.34                   563.70                   715.85                   767.99                   797.92                   804.96                   494.33                   560.78                   709.93                   760.08                   788.82                   795.67                   493.95                   560.53                   709.96                   760.09                   788.79                   795.67                   495.68                   563.10                   715.53                   767.92                   797.97                   804.99                   491.73                   557.96                   706.65                   756.26                   784.69                   791.49                   467.41                   529.61                   668.47                   712.75                   737.35                   743.44                   426.01                   479.47                   598.58                   635.35                   656.47                   662.09                   392.02                   431.08                   507.87                   529.18                   541.90                   545.69
12.000                   3.0000                   1.0000                   2000.0                   4000.0                   65.000                   533.83                   600.19                   754.51                   810.54                   840.89                   847.63                   534.57                   601.63                   759.28                   817.14                   848.33                   855.18                   535.19                   602.60                   761.81                   820.44                   851.88                   858.75                   533.11                   599.54                   754.14                   810.45                   840.81                   847.54                   532.79                   599.37                   754.46                   810.87                   841.28                   848.06                   534.54                   602.02                   761.42                   820.23                   851.80                   858.66                   530.34                   596.61                   750.43                   806.26                   836.44                   843.17                   504.65                   567.25                   706.99                   753.96                   780.23                   786.42                   461.06                   515.67                   636.94                   674.72                   696.16                   701.70                   424.95                   464.87                   543.42                   565.19                   578.07                   581.79
12.000                   3.0000                   1.0000                   2000.0                   4000.0                   70.000                   571.64                   637.74                   799.25                   861.59                   893.35                   899.88                   572.50                   639.40                   805.51                   869.91                   902.34                   908.92                   573.12                   640.39                   808.57                   873.72                   906.34                   912.93                   570.96                   637.15                   798.94                   861.55                   893.28                   899.81                   570.70                   637.07                   799.64                   862.50                   894.38                   900.95                   572.48                   639.82                   808.09                   873.36                   906.11                   912.70                   568.04                   634.14                   794.84                   857.11                   888.84                   895.41                   541.11                   603.81                   744.83                   794.90                   822.91                   829.18                   495.51                   551.03                   673.83                   712.50                   734.26                   739.70                   457.45                   498.17                   578.25                   600.41                   613.43                   617.06
12.000                   3.0000                   1.0000                   2000.0                   4000.0                   75.000                   605.17                   670.63                   849.00                   913.45                   944.17                   949.86                   606.16                   672.60                   857.11                   923.44                   954.61                   960.28                   606.80                   673.64                   860.57                   927.39                   958.69                   964.34                   604.54                   670.12                   848.82                   913.50                   944.22                   949.91                   604.36                   670.19                   850.25                   915.36                   946.26                   951.98                   606.17                   673.10                   860.10                   927.02                   958.42                   964.09                   601.61                   667.22                   845.08                   909.98                   940.93                   946.72                   574.05                   636.00                   784.65                   840.02                   869.03                   875.07                   527.28                   582.33                   703.51                   742.51                   764.75                   770.12                   488.01                   529.10                   609.19                   631.38                   644.33                   647.82