% Model:              batchmodel_COIL_N_12_COIL_kr_3_COIL_kh_1.5_FUNZ_freq_6000_FUNZ_I_eff_2500.mph
% Version:            COMSOL 6.0.0.318
% Date:               Feb 8 2022, 20:13
% Table:              Tabella 1 - GRIGLIA_T
% COIL_N                 COIL_kr                  COIL_kh                  FUNZ_freq                FUNZ_I_eff               Time (s)                 Temperatura (degC), Point: (0, 0)Temperatura (degC), Point: (15, 0)Temperatura (degC), Point: (27.483, 0)Temperatura (degC), Point: (28.742, 0)Temperatura (degC), Point: (29.497, 0)Temperatura (degC), Point: (29.99, 0)Temperatura (degC), Point: (0, 62.5)Temperatura (degC), Point: (15, 62.5)Temperatura (degC), Point: (27.483, 62.5)Temperatura (degC), Point: (28.742, 62.5)Temperatura (degC), Point: (29.497, 62.5)Temperatura (degC), Point: (29.99, 62.5)Temperatura (degC), Point: (0, 125)Temperatura (degC), Point: (15, 125)Temperatura (degC), Point: (27.483, 125)Temperatura (degC), Point: (28.742, 125)Temperatura (degC), Point: (29.497, 125)Temperatura (degC), Point: (29.99, 125)Temperatura (degC), Point: (0, 187.5)Temperatura (degC), Point: (15, 187.5)Temperatura (degC), Point: (27.483, 187.5)Temperatura (degC), Point: (28.742, 187.5)Temperatura (degC), Point: (29.497, 187.5)Temperatura (degC), Point: (29.99, 187.5)Temperatura (degC), Point: (0, 250)Temperatura (degC), Point: (15, 250)Temperatura (degC), Point: (27.483, 250)Temperatura (degC), Point: (28.742, 250)Temperatura (degC), Point: (29.497, 250)Temperatura (degC), Point: (29.99, 250)Temperatura (degC), Point: (0, 312.5)Temperatura (degC), Point: (15, 312.5)Temperatura (degC), Point: (27.483, 312.5)Temperatura (degC), Point: (28.742, 312.5)Temperatura (degC), Point: (29.497, 312.5)Temperatura (degC), Point: (29.99, 312.5)Temperatura (degC), Point: (0, 375)Temperatura (degC), Point: (15, 375)Temperatura (degC), Point: (27.483, 375)Temperatura (degC), Point: (28.742, 375)Temperatura (degC), Point: (29.497, 375)Temperatura (degC), Point: (29.99, 375)Temperatura (degC), Point: (0, 437.5)Temperatura (degC), Point: (15, 437.5)Temperatura (degC), Point: (27.483, 437.5)Temperatura (degC), Point: (28.742, 437.5)Temperatura (degC), Point: (29.497, 437.5)Temperatura (degC), Point: (29.99, 437.5)Temperatura (degC), Point: (0, 468.75)Temperatura (degC), Point: (15, 468.75)Temperatura (degC), Point: (27.483, 468.75)Temperatura (degC), Point: (28.742, 468.75)Temperatura (degC), Point: (29.497, 468.75)Temperatura (degC), Point: (29.99, 468.75)Temperatura (degC), Point: (0, 492.19)Temperatura (degC), Point: (15, 492.19)Temperatura (degC), Point: (27.483, 492.19)Temperatura (degC), Point: (28.742, 492.19)Temperatura (degC), Point: (29.497, 492.19)Temperatura (degC), Point: (29.99, 492.19)
12.000                   3.0000                   1.5000                   6000.0                   2500.0                   0.0000                   20.000                   20.000                   20.000                   20.000                   20.019                   20.191                   20.000                   20.000                   20.000                   20.000                   20.020                   20.196                   20.000                   20.000                   20.000                   20.000                   20.020                   20.199                   20.000                   20.000                   20.000                   20.000                   20.019                   20.192                   20.000                   20.000                   20.000                   20.000                   20.019                   20.192                   20.000                   20.000                   20.000                   20.000                   20.020                   20.199                   20.000                   20.000                   20.000                   20.000                   20.020                   20.194                   20.000                   20.000                   20.000                   20.000                   20.018                   20.188                   20.000                   20.000                   20.000                   20.000                   20.018                   20.187                   20.000                   20.000                   20.000                   20.000                   20.012                   20.162
12.000                   3.0000                   1.5000                   6000.0                   2500.0                   5.0000                   23.339                   35.477                   94.869                   105.11                   111.66                   114.48                   23.286                   35.238                   94.893                   105.40                   112.13                   115.02                   23.307                   35.313                   94.617                   105.10                   111.86                   114.78                   23.333                   35.443                   94.901                   105.22                   111.81                   114.65                   23.300                   35.336                   94.793                   105.11                   111.72                   114.57                   23.305                   35.230                   93.188                   103.46                   110.15                   113.06                   23.278                   35.169                   93.803                   104.09                   110.71                   113.57                   23.200                   34.843                   91.582                   101.40                   107.72                   110.48                   23.022                   34.024                   88.584                   98.152                   104.33                   107.04                   24.888                   35.154                   80.524                   88.264                   93.217                   95.463
12.000                   3.0000                   1.5000                   6000.0                   2500.0                   10.000                   43.303                   68.645                   143.57                   154.90                   162.09                   165.06                   43.230                   68.678                   145.11                   156.77                   164.15                   167.18                   43.349                   68.934                   146.41                   158.33                   165.84                   168.91                   43.301                   68.609                   143.55                   154.95                   162.16                   165.14                   43.241                   68.585                   143.87                   155.31                   162.57                   165.56                   43.234                   68.630                   146.05                   158.03                   165.58                   168.66                   43.077                   68.281                   143.96                   155.54                   162.87                   165.89                   42.410                   66.834                   139.72                   150.86                   157.88                   160.79                   41.241                   64.401                   134.15                   144.82                   151.60                   154.44                   41.914                   62.821                   120.80                   129.10                   134.32                   136.61
12.000                   3.0000                   1.5000                   6000.0                   2500.0                   15.000                   74.289                   106.41                   191.76                   204.18                   211.94                   215.02                   74.385                   106.85                   193.73                   206.46                   214.42                   217.57                   74.677                   107.41                   195.51                   208.45                   216.54                   219.71                   74.262                   106.33                   191.47                   203.91                   211.69                   214.78                   74.253                   106.42                   191.93                   204.43                   212.25                   215.34                   74.465                   107.09                   195.32                   208.31                   216.41                   219.59                   73.999                   106.18                   192.34                   204.97                   212.86                   215.99                   72.272                   103.31                   185.95                   198.02                   205.52                   208.52                   69.437                   98.779                   177.25                   188.72                   195.91                   198.81                   67.944                   94.180                   158.49                   167.23                   172.67                   174.99
12.000                   3.0000                   1.5000                   6000.0                   2500.0                   20.000                   109.85                   146.30                   240.13                   253.63                   262.02                   265.21                   110.16                   147.05                   242.22                   256.02                   264.59                   267.86                   110.62                   147.85                   244.22                   258.19                   266.88                   270.17                   109.76                   146.09                   239.37                   252.85                   261.23                   264.44                   109.82                   146.28                   239.97                   253.52                   261.93                   265.15                   110.35                   147.54                   244.02                   258.01                   266.70                   270.00                   109.52                   146.10                   240.47                   254.13                   262.62                   265.86                   106.50                   141.66                   231.81                   244.79                   252.81                   255.91                   101.61                   134.66                   219.52                   231.73                   239.34                   242.32                   97.825                   127.09                   195.54                   204.66                   210.31                   212.67
12.000                   3.0000                   1.5000                   6000.0                   2500.0                   25.000                   148.91                   188.27                   289.94                   304.67                   313.77                   317.11                   149.42                   189.25                   292.21                   307.24                   316.53                   319.94                   150.00                   190.19                   294.29                   309.50                   318.90                   322.34                   148.73                   187.94                   288.91                   303.60                   312.69                   316.04                   148.86                   188.20                   289.60                   304.36                   313.49                   316.84                   149.70                   189.87                   294.01                   309.22                   318.62                   322.06                   148.51                   188.01                   290.01                   304.87                   314.06                   317.44                   143.95                   181.79                   278.77                   292.81                   301.46                   304.69                   136.60                   171.87                   262.18                   275.24                   283.35                   286.43                   130.48                   161.28                   232.73                   242.24                   248.13                   250.53
12.000                   3.0000                   1.5000                   6000.0                   2500.0                   30.000                   190.37                   232.06                   341.85                   358.05                   367.99                   371.50                   191.06                   233.30                   344.88                   361.46                   371.63                   375.20                   191.71                   234.29                   347.05                   363.82                   374.11                   377.71                   190.16                   231.77                   341.32                   357.55                   367.51                   371.03                   190.32                   232.06                   341.99                   358.27                   368.27                   371.80                   191.38                   233.95                   346.70                   363.47                   373.76                   377.36                   189.88                   231.75                   342.21                   358.59                   368.64                   372.19                   183.57                   223.52                   327.99                   343.36                   352.81                   356.20                   173.36                   210.21                   306.31                   320.40                   329.12                   332.33                   164.85                   196.47                   270.70                   280.67                   286.85                   289.29
12.000                   3.0000                   1.5000                   6000.0                   2500.0                   35.000                   231.83                   275.87                   393.77                   411.45                   422.23                   425.91                   232.71                   277.36                   397.57                   415.68                   426.73                   430.48                   233.42                   278.41                   399.82                   418.15                   429.32                   433.10                   231.59                   275.62                   393.75                   411.50                   422.34                   426.03                   231.78                   275.92                   394.39                   412.20                   423.07                   426.77                   233.07                   278.04                   399.40                   417.72                   428.89                   432.67                   231.25                   275.50                   394.42                   412.31                   423.23                   426.95                   223.19                   265.26                   377.23                   393.93                   404.17                   407.73                   210.11                   248.55                   350.46                   365.59                   374.93                   378.26                   199.21                   231.65                   308.69                   319.12                   325.58                   328.07
12.000                   3.0000                   1.5000                   6000.0                   2500.0                   40.000                   273.32                   319.92                   446.21                   465.35                   476.95                   480.75                   274.36                   321.61                   450.52                   470.15                   482.02                   485.88                   275.10                   322.71                   452.89                   472.74                   484.74                   488.64                   273.09                   319.72                   446.48                   465.72                   477.38                   481.19                   273.29                   320.03                   447.14                   466.43                   478.12                   481.95                   274.69                   322.25                   452.28                   472.12                   484.11                   488.01                   272.63                   319.46                   446.95                   466.33                   478.06                   481.90                   262.78                   307.21                   426.95                   444.98                   455.96                   459.63                   246.76                   287.05                   395.21                   411.40                   421.35                   424.78                   233.46                   266.94                   347.10                   358.04                   364.79                   367.32
12.000                   3.0000                   1.5000                   6000.0                   2500.0                   45.000                   314.81                   363.97                   498.66                   519.26                   531.67                   535.60                   316.00                   365.87                   503.48                   524.61                   537.31                   541.29                   316.79                   367.02                   505.96                   527.34                   540.17                   544.19                   314.58                   363.82                   499.20                   519.93                   532.41                   536.35                   314.80                   364.14                   499.88                   520.66                   533.17                   537.12                   316.32                   366.47                   505.15                   526.51                   539.33                   543.35                   314.01                   363.42                   499.48                   520.34                   532.89                   536.85                   302.38                   349.15                   476.67                   496.03                   507.76                   511.54                   283.42                   325.55                   439.95                   457.22                   467.77                   471.29                   267.70                   302.23                   385.52                   396.96                   404.00                   406.57
12.000                   3.0000                   1.5000                   6000.0                   2500.0                   50.000                   353.71                   405.09                   547.04                   569.09                   582.34                   586.35                   354.93                   407.00                   551.77                   574.32                   587.87                   591.95                   355.68                   408.08                   553.97                   576.70                   590.34                   594.45                   353.53                   405.03                   547.87                   570.09                   583.45                   587.49                   353.74                   405.34                   548.49                   570.76                   584.14                   588.19                   355.21                   407.54                   553.30                   576.05                   589.71                   593.82                   352.85                   404.51                   547.94                   570.27                   583.68                   587.73                   339.96                   388.94                   523.69                   544.45                   556.97                   560.83                   318.56                   362.52                   482.96                   501.30                   512.46                   516.05                   300.72                   336.31                   422.64                   434.54                   441.85                   444.44
12.000                   3.0000                   1.5000                   6000.0                   2500.0                   55.000                   392.52                   446.11                   595.29                   618.79                   632.88                   636.98                   393.76                   448.03                   599.92                   623.88                   638.28                   642.45                   394.49                   449.04                   601.83                   625.90                   640.35                   644.54                   392.39                   446.15                   596.40                   620.11                   634.35                   638.50                   392.60                   446.44                   596.98                   620.72                   634.98                   639.13                   394.01                   448.51                   601.29                   625.44                   639.93                   644.13                   391.61                   445.51                   596.27                   620.06                   634.33                   638.48                   377.47                   428.65                   570.62                   592.78                   606.09                   610.04                   353.65                   399.45                   525.91                   545.33                   557.09                   560.75                   333.70                   370.35                   459.71                   472.08                   479.66                   482.27
12.000                   3.0000                   1.5000                   6000.0                   2500.0                   60.000                   431.33                   487.14                   643.55                   668.48                   683.43                   687.61                   432.60                   489.05                   648.07                   673.44                   688.69                   692.95                   433.30                   490.00                   649.68                   675.10                   690.35                   694.63                   431.26                   487.27                   644.94                   670.13                   685.26                   689.51                   431.45                   487.54                   645.47                   670.69                   685.81                   690.07                   432.82                   489.49                   649.29                   674.84                   690.15                   694.44                   430.37                   486.50                   644.59                   669.86                   684.98                   689.23                   414.99                   468.37                   617.55                   641.12                   655.22                   659.25                   388.75                   436.38                   568.86                   589.37                   601.73                   605.46                   366.68                   404.39                   496.78                   509.62                   517.46                   520.09
12.000                   3.0000                   1.5000                   6000.0                   2500.0                   65.000                   470.14                   528.16                   691.80                   718.18                   733.97                   738.24                   471.43                   530.08                   696.21                   723.01                   739.10                   743.45                   472.10                   530.95                   697.53                   724.30                   740.36                   744.72                   470.12                   528.39                   693.47                   720.16                   736.16                   740.52                   470.31                   528.64                   693.95                   720.65                   736.65                   741.01                   471.62                   530.46                   697.28                   724.23                   740.38                   744.76                   469.13                   527.50                   692.92                   719.65                   735.64                   739.99                   452.50                   508.09                   664.48                   689.46                   704.35                   708.46                   423.84                   473.31                   611.81                   633.40                   646.37                   650.16                   399.66                   438.43                   533.86                   547.17                   555.27                   557.92
12.000                   3.0000                   1.5000                   6000.0                   2500.0                   70.000                   503.55                   561.83                   731.03                   759.44                   776.00                   780.26                   504.87                   563.81                   736.54                   765.54                   782.42                   786.75                   505.52                   564.69                   738.26                   767.30                   784.18                   788.52                   503.59                   562.14                   733.25                   762.03                   778.80                   783.13                   503.77                   562.40                   733.88                   762.72                   779.49                   783.82                   505.04                   564.21                   738.07                   767.29                   784.25                   788.61                   502.54                   561.22                   732.82                   761.71                   778.48                   782.81                   485.05                   540.99                   700.21                   726.87                   742.47                   746.61                   454.96                   505.10                   645.32                   667.57                   680.97                   684.75                   429.58                   469.08                   566.06                   579.63                   587.86                   590.47
12.000                   3.0000                   1.5000                   6000.0                   2500.0                   75.000                   535.82                   593.94                   768.36                   798.94                   816.24                   820.47                   537.16                   596.00                   775.23                   806.59                   824.25                   828.54                   537.82                   596.91                   777.50                   809.00                   826.69                   831.00                   535.92                   594.34                   771.18                   802.20                   819.70                   823.98                   536.10                   594.61                   772.02                   803.12                   820.64                   824.92                   537.34                   596.45                   777.35                   809.03                   826.79                   831.10                   534.82                   593.40                   770.95                   802.14                   819.68                   823.96                   516.55                   572.45                   733.58                   761.97                   778.29                   782.43                   485.24                   535.81                   676.84                   699.68                   713.46                   717.22                   458.85                   499.01                   597.23                   611.02                   619.35                   621.91