% Model:              batchmodel_COIL_N_12_COIL_kr_3_COIL_kh_1_FUNZ_freq_2000_FUNZ_I_eff_1000.mph
% Version:            COMSOL 6.0.0.318
% Date:               Feb 8 2022, 19:41
% Table:              Tabella 1 - GRIGLIA_T
% COIL_N                 COIL_kr                  COIL_kh                  FUNZ_freq                FUNZ_I_eff               Time (s)                 Temperatura (degC), Point: (0, 0)Temperatura (degC), Point: (15, 0)Temperatura (degC), Point: (25.641, 0)Temperatura (degC), Point: (27.821, 0)Temperatura (degC), Point: (29.128, 0)Temperatura (degC), Point: (29.99, 0)Temperatura (degC), Point: (0, 62.5)Temperatura (degC), Point: (15, 62.5)Temperatura (degC), Point: (25.641, 62.5)Temperatura (degC), Point: (27.821, 62.5)Temperatura (degC), Point: (29.128, 62.5)Temperatura (degC), Point: (29.99, 62.5)Temperatura (degC), Point: (0, 125)Temperatura (degC), Point: (15, 125)Temperatura (degC), Point: (25.641, 125)Temperatura (degC), Point: (27.821, 125)Temperatura (degC), Point: (29.128, 125)Temperatura (degC), Point: (29.99, 125)Temperatura (degC), Point: (0, 187.5)Temperatura (degC), Point: (15, 187.5)Temperatura (degC), Point: (25.641, 187.5)Temperatura (degC), Point: (27.821, 187.5)Temperatura (degC), Point: (29.128, 187.5)Temperatura (degC), Point: (29.99, 187.5)Temperatura (degC), Point: (0, 250)Temperatura (degC), Point: (15, 250)Temperatura (degC), Point: (25.641, 250)Temperatura (degC), Point: (27.821, 250)Temperatura (degC), Point: (29.128, 250)Temperatura (degC), Point: (29.99, 250)Temperatura (degC), Point: (0, 312.5)Temperatura (degC), Point: (15, 312.5)Temperatura (degC), Point: (25.641, 312.5)Temperatura (degC), Point: (27.821, 312.5)Temperatura (degC), Point: (29.128, 312.5)Temperatura (degC), Point: (29.99, 312.5)Temperatura (degC), Point: (0, 375)Temperatura (degC), Point: (15, 375)Temperatura (degC), Point: (25.641, 375)Temperatura (degC), Point: (27.821, 375)Temperatura (degC), Point: (29.128, 375)Temperatura (degC), Point: (29.99, 375)Temperatura (degC), Point: (0, 437.5)Temperatura (degC), Point: (15, 437.5)Temperatura (degC), Point: (25.641, 437.5)Temperatura (degC), Point: (27.821, 437.5)Temperatura (degC), Point: (29.128, 437.5)Temperatura (degC), Point: (29.99, 437.5)Temperatura (degC), Point: (0, 468.75)Temperatura (degC), Point: (15, 468.75)Temperatura (degC), Point: (25.641, 468.75)Temperatura (degC), Point: (27.821, 468.75)Temperatura (degC), Point: (29.128, 468.75)Temperatura (degC), Point: (29.99, 468.75)Temperatura (degC), Point: (0, 492.19)Temperatura (degC), Point: (15, 492.19)Temperatura (degC), Point: (25.641, 492.19)Temperatura (degC), Point: (27.821, 492.19)Temperatura (degC), Point: (29.128, 492.19)Temperatura (degC), Point: (29.99, 492.19)
12.000                   3.0000                   1.0000                   2000.0                   1000.0                   0.0000                   20.000                   20.000                   20.000                   20.000                   20.000                   20.025                   20.000                   20.000                   20.000                   20.000                   20.000                   20.025                   20.000                   20.000                   20.000                   20.000                   20.000                   20.026                   20.000                   20.000                   20.000                   20.000                   20.000                   20.025                   20.000                   20.000                   20.000                   20.000                   20.000                   20.025                   20.000                   20.000                   20.000                   20.000                   20.000                   20.026                   20.000                   20.000                   20.000                   20.000                   20.000                   20.025                   20.000                   20.000                   20.000                   20.000                   20.000                   20.024                   20.000                   20.000                   20.000                   20.000                   20.000                   20.021                   20.000                   20.000                   20.000                   20.000                   20.000                   20.014
12.000                   3.0000                   1.0000                   2000.0                   1000.0                   5.0000                   20.683                   21.972                   27.134                   29.106                   30.450                   31.189                   20.692                   22.003                   27.268                   29.281                   30.656                   31.410                   20.696                   22.016                   27.322                   29.353                   30.739                   31.500                   20.684                   21.976                   27.151                   29.127                   30.476                   31.217                   20.687                   21.985                   27.191                   29.181                   30.538                   31.284                   20.696                   22.017                   27.330                   29.364                   30.753                   31.514                   20.688                   21.989                   27.210                   29.206                   30.569                   31.317                   20.886                   22.510                   28.953                   31.352                   32.600                   33.214                   21.054                   22.993                   31.725                   35.169                   36.715                   37.427                   21.304                   23.450                   30.522                   32.155                   32.850                   33.278
12.000                   3.0000                   1.0000                   2000.0                   1000.0                   10.000                   23.137                   25.956                   33.015                   35.148                   36.555                   37.318                   23.173                   26.039                   33.229                   35.408                   36.845                   37.624                   23.187                   26.071                   33.315                   35.511                   36.961                   37.745                   23.140                   25.965                   33.040                   35.179                   36.590                   37.355                   23.151                   25.989                   33.103                   35.256                   36.675                   37.445                   23.187                   26.071                   33.316                   35.513                   36.963                   37.748                   23.156                   25.997                   33.112                   35.263                   36.681                   37.449                   24.466                   28.677                   39.893                   43.390                   45.143                   45.910                   25.691                   31.321                   47.998                   52.896                   55.006                   55.921                   26.797                   33.046                   47.628                   50.355                   51.231                   51.667
12.000                   3.0000                   1.0000                   2000.0                   1000.0                   15.000                   26.925                   30.530                   38.342                   40.544                   41.970                   42.733                   26.992                   30.653                   38.607                   40.855                   42.311                   43.089                   27.018                   30.701                   38.711                   40.977                   42.446                   43.229                   26.930                   30.542                   38.371                   40.579                   42.009                   42.773                   26.948                   30.576                   38.446                   40.667                   42.106                   42.875                   27.010                   30.691                   38.697                   40.961                   42.429                   43.212                   26.961                   30.581                   38.424                   40.634                   42.064                   42.828                   30.939                   36.993                   51.089                   55.143                   57.167                   57.969                   34.586                   43.107                   64.548                   70.016                   72.355                   73.207                   36.688                   45.778                   63.667                   66.527                   67.360                   67.699
12.000                   3.0000                   1.0000                   2000.0                   1000.0                   20.000                   31.231                   35.305                   43.484                   45.723                   47.159                   47.919                   31.328                   35.463                   43.787                   46.071                   47.538                   48.313                   31.365                   35.524                   43.905                   46.208                   47.686                   48.467                   31.238                   35.319                   43.515                   45.760                   47.200                   47.962                   31.262                   35.360                   43.598                   45.856                   47.304                   48.071                   31.348                   35.501                   43.872                   46.172                   47.649                   48.429                   31.285                   35.364                   43.545                   45.783                   47.218                   47.978                   38.653                   46.138                   62.160                   66.499                   68.676                   69.435                   45.309                   56.151                   80.507                   85.981                   88.129                   88.809                   48.409                   59.554                   78.725                   81.414                   82.166                   82.371
12.000                   3.0000                   1.0000                   2000.0                   1000.0                   25.000                   36.047                   40.258                   48.562                   50.824                   52.274                   53.038                   36.167                   40.439                   48.888                   51.196                   52.676                   53.456                   36.212                   40.508                   49.015                   51.341                   52.833                   53.619                   36.054                   40.272                   48.594                   50.861                   52.315                   53.081                   36.082                   40.317                   48.681                   50.963                   52.425                   53.196                   36.184                   40.477                   48.981                   51.307                   52.800                   53.586                   36.163                   40.385                   48.723                   50.998                   52.457                   53.226                   45.721                   52.390                   65.046                   68.214                   69.956                   70.711                   53.754                   62.620                   79.298                   82.834                   84.460                   85.119                   56.382                   64.810                   77.513                   79.412                   80.156                   80.458
12.000                   3.0000                   1.0000                   2000.0                   1000.0                   30.000                   40.906                   45.229                   53.641                   55.923                   57.384                   58.152                   41.046                   45.431                   53.988                   56.315                   57.807                   58.590                   41.098                   45.507                   54.122                   56.467                   57.971                   58.760                   40.914                   45.243                   53.672                   55.960                   57.425                   58.195                   40.945                   45.292                   53.764                   56.066                   57.540                   58.315                   41.062                   45.470                   54.089                   56.438                   57.944                   58.735                   41.098                   45.438                   53.907                   56.212                   57.690                   58.467                   52.471                   58.431                   68.679                   71.044                   72.456                   73.171                   61.477                   68.629                   79.820                   82.095                   83.393                   84.025                   63.749                   70.088                   78.507                   79.929                   80.706                   81.077
12.000                   3.0000                   1.0000                   2000.0                   1000.0                   35.000                   45.831                   50.227                   58.720                   61.017                   62.487                   63.257                   45.987                   50.445                   59.084                   61.427                   62.927                   63.712                   46.045                   50.527                   59.224                   61.585                   63.097                   63.888                   45.838                   50.240                   58.751                   61.054                   62.527                   63.299                   45.871                   50.292                   58.847                   61.164                   62.647                   63.424                   46.003                   50.487                   59.195                   61.561                   63.078                   63.871                   46.120                   50.538                   59.104                   61.427                   62.916                   63.695                   58.742                   64.154                   73.432                   75.547                   76.782                   77.409                   68.118                   73.947                   82.937                   84.968                   86.229                   86.824                   70.208                   75.397                   82.812                   84.223                   85.097                   85.495
12.000                   3.0000                   1.0000                   2000.0                   1000.0                   40.000                   50.837                   55.265                   63.807                   66.115                   67.591                   68.362                   51.003                   55.494                   64.182                   66.535                   68.042                   68.828                   51.064                   55.579                   64.326                   66.697                   68.216                   69.008                   50.841                   55.276                   63.836                   66.149                   67.629                   68.402                   50.875                   55.329                   63.933                   66.261                   67.750                   68.527                   51.019                   55.537                   64.294                   66.670                   68.192                   68.985                   51.258                   55.714                   64.331                   66.665                   68.158                   68.938                   64.024                   68.935                   77.632                   79.784                   81.117                   81.805                   72.738                   77.539                   85.318                   87.203                   88.411                   89.023                   74.358                   78.374                   84.166                   85.347                   86.065                   86.427
12.000                   3.0000                   1.0000                   2000.0                   1000.0                   45.000                   55.872                   60.327                   68.912                   71.230                   72.712                   73.483                   56.047                   60.564                   69.296                   71.659                   73.171                   73.958                   56.110                   60.651                   69.441                   71.823                   73.348                   74.140                   55.875                   60.336                   68.939                   71.262                   72.748                   73.522                   55.909                   60.388                   69.036                   71.373                   72.868                   73.647                   56.064                   60.608                   69.409                   71.794                   73.322                   74.116                   56.438                   60.921                   69.583                   71.925                   73.424                   74.204                   68.933                   73.532                   81.897                   84.074                   85.464                   86.186                   76.721                   80.885                   87.973                   89.782                   90.961                   91.581                   77.822                   81.081                   85.879                   86.921                   87.551                   87.891
12.000                   3.0000                   1.0000                   2000.0                   1000.0                   50.000                   60.933                   65.409                   74.034                   76.361                   77.848                   78.621                   61.114                   65.652                   74.423                   76.796                   78.314                   79.102                   61.178                   65.741                   74.569                   76.961                   78.492                   79.286                   60.933                   65.416                   74.057                   76.390                   77.882                   78.657                   60.966                   65.468                   74.154                   76.500                   78.002                   78.781                   61.132                   65.698                   74.537                   76.933                   78.467                   79.261                   61.651                   66.155                   74.854                   77.206                   78.710                   79.491                   73.538                   77.996                   86.245                   88.423                   89.820                   90.548                   80.194                   84.071                   90.911                   92.704                   93.876                   94.494                   80.742                   83.628                   88.034                   89.033                   89.646                   89.981
12.000                   3.0000                   1.0000                   2000.0                   1000.0                   55.000                   65.994                   70.492                   79.155                   81.491                   82.985                   83.759                   66.180                   70.740                   79.550                   81.933                   83.457                   84.246                   66.245                   70.830                   79.698                   82.099                   83.637                   84.431                   65.991                   70.496                   79.175                   81.518                   83.016                   83.792                   66.024                   70.547                   79.271                   81.628                   83.135                   83.916                   66.200                   70.789                   79.666                   82.071                   83.611                   84.407                   66.864                   71.390                   80.126                   82.487                   83.997                   84.778                   78.143                   82.460                   90.592                   92.772                   94.177                   94.910                   83.667                   87.257                   93.849                   95.626                   96.791                   97.406                   83.661                   86.175                   90.190                   91.144                   91.741                   92.072
12.000                   3.0000                   1.0000                   2000.0                   1000.0                   60.000                   71.093                   75.611                   84.312                   86.660                   88.161                   88.936                   71.283                   75.863                   84.711                   87.105                   88.637                   89.427                   71.349                   75.954                   84.860                   87.273                   88.817                   89.613                   71.087                   75.612                   84.330                   86.683                   88.188                   88.965                   71.119                   75.662                   84.425                   86.792                   88.307                   89.088                   71.308                   75.917                   84.834                   87.250                   88.797                   89.594                   72.090                   76.637                   85.410                   87.781                   89.298                   90.080                   82.662                   86.920                   95.026                   97.213                   98.625                   99.360                   87.133                   90.591                   97.091                   98.867                   100.03                   100.64                   86.639                   88.973                   92.818                   93.756                   94.346                   94.674
12.000                   3.0000                   1.0000                   2000.0                   1000.0                   65.000                   76.214                   80.751                   89.491                   91.849                   93.357                   94.134                   76.406                   81.006                   89.893                   92.298                   93.838                   94.629                   76.471                   81.097                   90.042                   92.466                   94.018                   94.815                   76.204                   80.749                   89.505                   91.870                   93.382                   94.161                   76.235                   80.798                   89.599                   91.978                   93.500                   94.283                   76.439                   81.067                   90.023                   92.451                   94.006                   94.804                   77.325                   81.890                   90.700                   93.083                   94.607                   95.391                   87.132                   91.377                   99.508                   101.71                   103.12                   103.86                   90.596                   94.006                   100.50                   102.29                   103.45                   104.07                   89.649                   91.914                   95.711                   96.648                   97.238                   97.565
12.000                   3.0000                   1.0000                   2000.0                   1000.0                   70.000                   81.334                   85.891                   94.669                   97.039                   98.554                   99.332                   81.529                   86.149                   95.074                   97.491                   99.038                   99.831                   81.594                   86.239                   95.224                   97.659                   99.218                   100.02                   81.322                   85.886                   94.681                   97.056                   98.576                   99.356                   81.351                   85.934                   94.774                   97.164                   98.693                   99.477                   81.569                   86.218                   95.213                   97.652                   99.214                   100.01                   82.560                   87.143                   95.991                   98.384                   99.916                   100.70                   91.602                   95.835                   103.99                   106.20                   107.62                   108.36                   94.058                   97.422                   103.92                   105.71                   106.88                   107.49                   92.660                   94.855                   98.604                   99.540                   100.13                   100.46
12.000                   3.0000                   1.0000                   2000.0                   1000.0                   75.000                   86.455                   91.031                   99.847                   102.23                   103.75                   104.53                   86.652                   91.291                   100.26                   102.68                   104.24                   105.03                   86.717                   91.382                   100.41                   102.85                   104.42                   105.22                   86.439                   91.022                   99.856                   102.24                   103.77                   104.55                   86.467                   91.070                   99.948                   102.35                   103.89                   104.67                   86.699                   91.368                   100.40                   102.85                   104.42                   105.22                   87.795                   92.397                   101.28                   103.69                   105.23                   106.01                   96.072                   100.29                   108.47                   110.69                   112.12                   112.86                   97.521                   100.84                   107.33                   109.13                   110.30                   110.91                   95.670                   97.795                   101.50                   102.43                   103.02                   103.35