% Model:              batchmodel_COIL_N_12_COIL_kr_2.25_COIL_kh_2_FUNZ_freq_2000_FUNZ_I_eff_1000.mph
% Version:            COMSOL 6.0.0.318
% Date:               Feb 8 2022, 19:21
% Table:              Tabella 1 - GRIGLIA_T
% COIL_N                 COIL_kr                  COIL_kh                  FUNZ_freq                FUNZ_I_eff               Time (s)                 Temperatura (degC), Point: (0, 0)Temperatura (degC), Point: (15, 0)Temperatura (degC), Point: (25.641, 0)Temperatura (degC), Point: (27.821, 0)Temperatura (degC), Point: (29.128, 0)Temperatura (degC), Point: (29.99, 0)Temperatura (degC), Point: (0, 62.5)Temperatura (degC), Point: (15, 62.5)Temperatura (degC), Point: (25.641, 62.5)Temperatura (degC), Point: (27.821, 62.5)Temperatura (degC), Point: (29.128, 62.5)Temperatura (degC), Point: (29.99, 62.5)Temperatura (degC), Point: (0, 125)Temperatura (degC), Point: (15, 125)Temperatura (degC), Point: (25.641, 125)Temperatura (degC), Point: (27.821, 125)Temperatura (degC), Point: (29.128, 125)Temperatura (degC), Point: (29.99, 125)Temperatura (degC), Point: (0, 187.5)Temperatura (degC), Point: (15, 187.5)Temperatura (degC), Point: (25.641, 187.5)Temperatura (degC), Point: (27.821, 187.5)Temperatura (degC), Point: (29.128, 187.5)Temperatura (degC), Point: (29.99, 187.5)Temperatura (degC), Point: (0, 250)Temperatura (degC), Point: (15, 250)Temperatura (degC), Point: (25.641, 250)Temperatura (degC), Point: (27.821, 250)Temperatura (degC), Point: (29.128, 250)Temperatura (degC), Point: (29.99, 250)Temperatura (degC), Point: (0, 312.5)Temperatura (degC), Point: (15, 312.5)Temperatura (degC), Point: (25.641, 312.5)Temperatura (degC), Point: (27.821, 312.5)Temperatura (degC), Point: (29.128, 312.5)Temperatura (degC), Point: (29.99, 312.5)Temperatura (degC), Point: (0, 375)Temperatura (degC), Point: (15, 375)Temperatura (degC), Point: (25.641, 375)Temperatura (degC), Point: (27.821, 375)Temperatura (degC), Point: (29.128, 375)Temperatura (degC), Point: (29.99, 375)Temperatura (degC), Point: (0, 437.5)Temperatura (degC), Point: (15, 437.5)Temperatura (degC), Point: (25.641, 437.5)Temperatura (degC), Point: (27.821, 437.5)Temperatura (degC), Point: (29.128, 437.5)Temperatura (degC), Point: (29.99, 437.5)Temperatura (degC), Point: (0, 468.75)Temperatura (degC), Point: (15, 468.75)Temperatura (degC), Point: (25.641, 468.75)Temperatura (degC), Point: (27.821, 468.75)Temperatura (degC), Point: (29.128, 468.75)Temperatura (degC), Point: (29.99, 468.75)Temperatura (degC), Point: (0, 492.19)Temperatura (degC), Point: (15, 492.19)Temperatura (degC), Point: (25.641, 492.19)Temperatura (degC), Point: (27.821, 492.19)Temperatura (degC), Point: (29.128, 492.19)Temperatura (degC), Point: (29.99, 492.19)
12.000                   2.2500                   2.0000                   2000.0                   1000.0                   0.0000                   20.000                   20.000                   20.000                   20.000                   20.000                   20.025                   20.000                   20.000                   20.000                   20.000                   20.000                   20.026                   20.000                   20.000                   20.000                   20.000                   20.000                   20.027                   20.000                   20.000                   20.000                   20.000                   20.000                   20.026                   20.000                   20.000                   20.000                   20.000                   20.000                   20.026                   20.000                   20.000                   20.000                   20.000                   20.000                   20.027                   20.000                   20.000                   20.000                   20.000                   20.000                   20.027                   20.000                   20.000                   20.000                   20.000                   20.000                   20.025                   20.000                   20.000                   20.000                   20.000                   20.000                   20.025                   20.000                   20.000                   20.000                   20.000                   20.000                   20.016
12.000                   2.2500                   2.0000                   2000.0                   1000.0                   5.0000                   20.720                   22.029                   27.233                   29.222                   30.576                   31.318                   20.745                   22.115                   27.598                   29.703                   31.139                   31.921                   20.759                   22.163                   27.805                   29.977                   31.459                   32.265                   20.728                   22.057                   27.354                   29.381                   30.762                   31.518                   20.726                   22.052                   27.332                   29.353                   30.729                   31.482                   20.758                   22.159                   27.790                   29.957                   31.436                   32.241                   20.746                   22.118                   27.616                   29.727                   31.166                   31.951                   20.708                   21.995                   27.116                   29.074                   30.407                   31.138                   20.780                   22.242                   28.267                   30.587                   31.964                   32.701                   20.914                   22.623                   28.777                   31.081                   32.284                   32.931
12.000                   2.2500                   2.0000                   2000.0                   1000.0                   10.000                   23.422                   26.224                   33.208                   35.362                   36.780                   37.544                   23.523                   26.445                   33.781                   36.056                   37.559                   38.364                   23.581                   26.572                   34.111                   36.457                   38.008                   38.837                   23.455                   26.296                   33.397                   35.590                   37.037                   37.814                   23.448                   26.283                   33.363                   35.549                   36.990                   37.766                   23.576                   26.562                   34.086                   36.427                   37.974                   38.802                   23.527                   26.455                   33.811                   36.094                   37.601                   38.409                   23.363                   26.115                   32.982                   35.102                   36.500                   37.253                   23.526                   26.404                   33.498                   35.618                   36.994                   37.730                   23.665                   26.382                   32.023                   33.370                   34.169                   34.589
12.000                   2.2500                   2.0000                   2000.0                   1000.0                   15.000                   27.419                   30.983                   38.734                   40.962                   42.406                   43.176                   27.602                   31.311                   39.439                   41.790                   43.318                   44.129                   27.707                   31.500                   39.846                   42.269                   43.846                   44.680                   27.479                   31.091                   38.966                   41.234                   42.706                   43.489                   27.467                   31.070                   38.923                   41.184                   42.651                   43.432                   27.697                   31.483                   39.813                   42.231                   43.805                   44.638                   27.608                   31.325                   39.475                   41.834                   43.368                   44.181                   27.283                   30.779                   38.391                   40.581                   42.002                   42.760                   27.493                   31.104                   38.961                   41.142                   42.506                   43.233                   27.587                   30.945                   37.287                   38.719                   39.514                   39.903
12.000                   2.2500                   2.0000                   2000.0                   1000.0                   20.000                   31.815                   35.896                   44.144                   46.421                   47.884                   48.657                   32.075                   36.316                   44.956                   47.357                   48.904                   49.718                   32.225                   36.559                   45.425                   47.899                   49.494                   50.332                   31.900                   36.033                   44.410                   46.728                   48.218                   49.004                   31.883                   36.006                   44.360                   46.671                   48.156                   48.940                   32.210                   36.536                   45.386                   47.855                   49.447                   50.283                   32.083                   36.333                   44.996                   47.405                   48.957                   49.774                   31.592                   35.588                   43.676                   45.911                   47.348                   48.108                   31.872                   36.062                   44.683                   46.950                   48.305                   49.028                   31.993                   36.048                   43.553                   45.192                   46.028                   46.399
12.000                   2.2500                   2.0000                   2000.0                   1000.0                   25.000                   36.846                   41.066                   49.457                   51.752                   53.224                   53.999                   37.151                   41.535                   50.319                   52.740                   54.296                   55.112                   37.326                   41.805                   50.817                   53.311                   54.916                   55.755                   36.944                   41.218                   49.738                   52.075                   53.574                   54.363                   36.924                   41.188                   49.684                   52.014                   53.509                   54.295                   37.307                   41.778                   50.774                   53.262                   54.864                   55.702                   37.155                   41.548                   50.356                   52.785                   54.346                   55.165                   36.617                   40.752                   48.978                   51.231                   52.676                   53.439                   37.424                   41.919                   51.010                   53.345                   54.719                   55.446                   38.090                   42.717                   51.229                   53.084                   54.043                   54.395
12.000                   2.2500                   2.0000                   2000.0                   1000.0                   30.000                   41.876                   46.237                   54.769                   57.084                   58.565                   59.342                   42.226                   46.754                   55.682                   58.122                   59.688                   60.506                   42.428                   47.052                   56.210                   58.723                   60.338                   61.179                   41.988                   46.404                   55.066                   57.422                   58.931                   59.721                   41.964                   46.370                   55.009                   57.357                   58.861                   59.649                   42.404                   47.020                   56.162                   58.670                   60.281                   61.121                   42.227                   46.764                   55.716                   58.164                   59.735                   60.555                   41.642                   45.915                   54.279                   56.551                   58.005                   58.769                   42.976                   47.775                   57.338                   59.740                   61.133                   61.864                   44.187                   49.387                   58.906                   60.977                   62.058                   62.391
12.000                   2.2500                   2.0000                   2000.0                   1000.0                   35.000                   46.906                   51.407                   60.081                   62.415                   63.905                   64.684                   47.301                   51.972                   61.045                   63.505                   65.080                   65.899                   47.529                   52.298                   61.603                   64.136                   65.760                   66.603                   47.032                   51.589                   60.394                   62.770                   64.288                   65.080                   47.005                   51.552                   60.333                   62.701                   64.214                   65.004                   47.501                   52.262                   61.549                   64.077                   65.698                   66.539                   47.299                   51.979                   61.076                   63.544                   65.124                   65.946                   46.666                   51.078                   59.580                   61.870                   63.333                   64.099                   48.528                   53.632                   63.665                   66.135                   67.547                   68.282                   50.284                   56.057                   66.582                   68.869                   70.072                   70.387
12.000                   2.2500                   2.0000                   2000.0                   1000.0                   40.000                   52.098                   56.658                   65.400                   67.747                   69.245                   70.025                   52.523                   57.253                   66.396                   68.868                   70.451                   71.271                   52.767                   57.596                   66.971                   69.517                   71.149                   71.992                   52.234                   56.849                   65.723                   68.111                   69.637                   70.430                   52.203                   56.808                   65.658                   68.039                   69.560                   70.351                   52.735                   57.556                   66.913                   69.454                   71.083                   71.925                   52.515                   57.255                   66.422                   68.903                   70.491                   71.314                   51.966                   56.436                   65.003                   67.304                   68.773                   69.540                   54.639                   59.953                   70.334                   72.857                   74.273                   75.005                   57.189                   63.424                   74.688                   77.099                   78.371                   78.667
12.000                   2.2500                   2.0000                   2000.0                   1000.0                   45.000                   57.332                   61.928                   70.722                   73.080                   74.584                   75.365                   57.781                   62.548                   71.743                   74.227                   75.816                   76.638                   58.039                   62.905                   72.333                   74.890                   76.529                   77.374                   57.474                   62.127                   71.052                   73.451                   74.983                   75.778                   57.441                   62.084                   70.985                   73.377                   74.904                   75.696                   58.003                   62.862                   72.271                   74.824                   76.459                   77.303                   57.768                   62.546                   71.764                   74.256                   75.851                   76.675                   57.335                   61.841                   70.456                   72.766                   74.241                   75.009                   60.891                   66.391                   77.088                   79.661                   81.079                   81.806                   64.297                   70.966                   82.902                   85.414                   86.741                   87.019
12.000                   2.2500                   2.0000                   2000.0                   1000.0                   50.000                   62.565                   67.199                   76.043                   78.412                   79.923                   80.705                   63.038                   67.844                   77.090                   79.585                   81.182                   82.004                   63.310                   68.215                   77.694                   80.264                   81.909                   82.755                   62.714                   67.405                   76.381                   78.791                   80.330                   81.126                   62.679                   67.359                   76.311                   78.714                   80.248                   81.041                   63.271                   68.168                   77.629                   80.193                   81.836                   82.680                   63.021                   67.836                   77.107                   79.610                   81.212                   82.037                   62.703                   67.247                   75.908                   78.229                   79.710                   80.478                   67.143                   72.829                   83.842                   86.465                   87.884                   88.606                   71.404                   78.507                   91.115                   93.728                   95.110                   95.370
12.000                   2.2500                   2.0000                   2000.0                   1000.0                   55.000                   67.853                   72.514                   81.401                   83.781                   85.299                   86.082                   68.344                   73.176                   82.466                   84.973                   86.576                   87.400                   68.625                   73.557                   83.080                   85.661                   87.315                   88.162                   68.007                   72.724                   81.743                   84.165                   85.711                   86.508                   67.970                   72.677                   81.671                   84.086                   85.627                   86.421                   68.582                   73.506                   83.012                   85.587                   87.237                   88.083                   68.325                   73.167                   82.482                   84.997                   86.606                   87.432                   68.196                   72.765                   81.465                   83.795                   85.282                   86.051                   73.428                   79.212                   90.378                   93.028                   94.450                   95.170                   78.406                   85.747                   98.672                   101.32                   102.72                   102.97
12.000                   2.2500                   2.0000                   2000.0                   1000.0                   60.000                   73.178                   77.858                   86.782                   89.174                   90.699                   91.484                   73.681                   78.532                   87.860                   90.379                   91.990                   92.816                   73.969                   78.919                   88.482                   91.075                   92.737                   93.585                   73.335                   78.071                   87.128                   89.561                   91.115                   91.913                   73.296                   78.022                   87.054                   89.480                   91.029                   91.825                   73.922                   78.865                   88.410                   90.998                   92.656                   93.503                   73.664                   78.525                   87.879                   90.406                   92.023                   92.850                   73.770                   78.356                   87.089                   89.430                   90.923                   91.694                   79.737                   85.558                   96.769                   99.432                   100.86                   101.58                   85.337                   92.786                   105.79                   108.44                   109.84                   110.07
12.000                   2.2500                   2.0000                   2000.0                   1000.0                   65.000                   78.503                   83.202                   92.164                   94.566                   96.099                   96.886                   79.017                   83.888                   93.255                   95.785                   97.405                   98.231                   79.312                   84.282                   93.884                   96.489                   98.158                   99.008                   78.663                   83.418                   92.513                   94.957                   96.519                   97.318                   78.622                   83.367                   92.438                   94.874                   96.431                   97.228                   79.262                   84.224                   93.809                   96.409                   98.075                   98.923                   79.002                   83.883                   93.276                   95.814                   97.439                   98.269                   79.345                   83.948                   92.714                   95.065                   96.565                   97.336                   86.045                   91.905                   103.16                   105.84                   107.27                   107.98                   92.269                   99.825                   112.91                   115.56                   116.95                   117.17
12.000                   2.2500                   2.0000                   2000.0                   1000.0                   70.000                   83.828                   88.546                   97.546                   99.959                   101.50                   102.29                   84.354                   89.244                   98.650                   101.19                   102.82                   103.65                   84.655                   89.644                   99.286                   101.90                   103.58                   104.43                   83.991                   88.765                   97.898                   100.35                   101.92                   102.72                   83.948                   88.712                   97.821                   100.27                   101.83                   102.63                   84.602                   89.584                   99.208                   101.82                   103.49                   104.34                   84.341                   89.241                   98.673                   101.22                   102.86                   103.69                   84.919                   89.539                   98.339                   100.70                   102.21                   102.98                   92.353                   98.251                   109.55                   112.24                   113.67                   114.39                   99.200                   106.86                   120.03                   122.68                   124.06                   124.27
12.000                   2.2500                   2.0000                   2000.0                   1000.0                   75.000                   89.153                   93.890                   102.93                   105.35                   106.90                   107.69                   89.691                   94.600                   104.04                   106.60                   108.23                   109.06                   89.999                   95.007                   104.69                   107.32                   109.00                   109.85                   89.319                   94.112                   103.28                   105.75                   107.33                   108.13                   89.274                   94.057                   103.20                   105.66                   107.23                   108.03                   89.942                   94.943                   104.61                   107.23                   108.91                   109.76                   89.680                   94.599                   104.07                   106.63                   108.27                   109.10                   90.494                   95.131                   103.96                   106.33                   107.85                   108.62                   98.662                   104.60                   115.94                   118.64                   120.08                   120.79                   106.13                   113.90                   127.15                   129.79                   131.17                   131.38