% Model:              batchmodel_COIL_N_12_COIL_kr_3_COIL_kh_1.5_FUNZ_freq_2000_FUNZ_I_eff_1000.mph
% Version:            COMSOL 6.0.0.318
% Date:               Feb 8 2022, 20:01
% Table:              Tabella 1 - GRIGLIA_T
% COIL_N                 COIL_kr                  COIL_kh                  FUNZ_freq                FUNZ_I_eff               Time (s)                 Temperatura (degC), Point: (0, 0)Temperatura (degC), Point: (15, 0)Temperatura (degC), Point: (25.641, 0)Temperatura (degC), Point: (27.821, 0)Temperatura (degC), Point: (29.128, 0)Temperatura (degC), Point: (29.99, 0)Temperatura (degC), Point: (0, 62.5)Temperatura (degC), Point: (15, 62.5)Temperatura (degC), Point: (25.641, 62.5)Temperatura (degC), Point: (27.821, 62.5)Temperatura (degC), Point: (29.128, 62.5)Temperatura (degC), Point: (29.99, 62.5)Temperatura (degC), Point: (0, 125)Temperatura (degC), Point: (15, 125)Temperatura (degC), Point: (25.641, 125)Temperatura (degC), Point: (27.821, 125)Temperatura (degC), Point: (29.128, 125)Temperatura (degC), Point: (29.99, 125)Temperatura (degC), Point: (0, 187.5)Temperatura (degC), Point: (15, 187.5)Temperatura (degC), Point: (25.641, 187.5)Temperatura (degC), Point: (27.821, 187.5)Temperatura (degC), Point: (29.128, 187.5)Temperatura (degC), Point: (29.99, 187.5)Temperatura (degC), Point: (0, 250)Temperatura (degC), Point: (15, 250)Temperatura (degC), Point: (25.641, 250)Temperatura (degC), Point: (27.821, 250)Temperatura (degC), Point: (29.128, 250)Temperatura (degC), Point: (29.99, 250)Temperatura (degC), Point: (0, 312.5)Temperatura (degC), Point: (15, 312.5)Temperatura (degC), Point: (25.641, 312.5)Temperatura (degC), Point: (27.821, 312.5)Temperatura (degC), Point: (29.128, 312.5)Temperatura (degC), Point: (29.99, 312.5)Temperatura (degC), Point: (0, 375)Temperatura (degC), Point: (15, 375)Temperatura (degC), Point: (25.641, 375)Temperatura (degC), Point: (27.821, 375)Temperatura (degC), Point: (29.128, 375)Temperatura (degC), Point: (29.99, 375)Temperatura (degC), Point: (0, 437.5)Temperatura (degC), Point: (15, 437.5)Temperatura (degC), Point: (25.641, 437.5)Temperatura (degC), Point: (27.821, 437.5)Temperatura (degC), Point: (29.128, 437.5)Temperatura (degC), Point: (29.99, 437.5)Temperatura (degC), Point: (0, 468.75)Temperatura (degC), Point: (15, 468.75)Temperatura (degC), Point: (25.641, 468.75)Temperatura (degC), Point: (27.821, 468.75)Temperatura (degC), Point: (29.128, 468.75)Temperatura (degC), Point: (29.99, 468.75)Temperatura (degC), Point: (0, 492.19)Temperatura (degC), Point: (15, 492.19)Temperatura (degC), Point: (25.641, 492.19)Temperatura (degC), Point: (27.821, 492.19)Temperatura (degC), Point: (29.128, 492.19)Temperatura (degC), Point: (29.99, 492.19)
12.000                   3.0000                   1.5000                   2000.0                   1000.0                   0.0000                   20.000                   20.000                   20.000                   20.000                   20.000                   20.025                   20.000                   20.000                   20.000                   20.000                   20.000                   20.026                   20.000                   20.000                   20.000                   20.000                   20.000                   20.026                   20.000                   20.000                   20.000                   20.000                   20.000                   20.025                   20.000                   20.000                   20.000                   20.000                   20.000                   20.025                   20.000                   20.000                   20.000                   20.000                   20.000                   20.026                   20.000                   20.000                   20.000                   20.000                   20.000                   20.025                   20.000                   20.000                   20.000                   20.000                   20.000                   20.024                   20.000                   20.000                   20.000                   20.000                   20.000                   20.022                   20.000                   20.000                   20.000                   20.000                   20.000                   20.014
12.000                   3.0000                   1.5000                   2000.0                   1000.0                   5.0000                   20.520                   21.803                   26.917                   28.900                   30.253                   30.992                   20.556                   21.934                   27.308                   29.291                   30.628                   31.365                   20.572                   21.993                   27.518                   29.554                   30.912                   31.654                   20.526                   21.826                   27.004                   29.019                   30.389                   31.131                   20.533                   21.849                   27.060                   29.071                   30.439                   31.182                   20.573                   21.993                   27.505                   29.532                   30.886                   31.628                   20.534                   21.861                   27.063                   29.015                   30.354                   31.099                   20.483                   21.722                   26.780                   28.760                   30.074                   30.745                   20.355                   21.337                   25.968                   27.970                   29.036                   29.583                   20.175                   20.611                   22.954                   24.080                   24.718                   25.015
12.000                   3.0000                   1.5000                   2000.0                   1000.0                   10.000                   23.040                   25.873                   32.895                   35.031                   36.434                   37.193                   23.123                   26.020                   33.124                   35.280                   36.703                   37.473                   23.167                   26.105                   33.300                   35.481                   36.919                   37.695                   23.047                   25.888                   32.935                   35.083                   36.495                   37.256                   23.064                   25.916                   32.970                   35.119                   36.534                   37.298                   23.163                   26.098                   33.282                   35.459                   36.896                   37.672                   23.036                   25.868                   32.858                   34.992                   36.404                   37.171                   22.898                   25.667                   32.495                   34.546                   35.889                   36.618                   22.427                   24.895                   31.115                   32.925                   34.100                   34.738                   21.709                   23.327                   27.131                   28.145                   28.772                   29.132
12.000                   3.0000                   1.5000                   2000.0                   1000.0                   15.000                   26.934                   30.530                   38.267                   40.479                   41.916                   42.685                   27.041                   30.692                   38.551                   40.804                   42.269                   43.049                   27.096                   30.778                   38.703                   40.976                   42.453                   43.239                   26.936                   30.538                   38.289                   40.503                   41.942                   42.713                   26.959                   30.570                   38.340                   40.561                   42.005                   42.777                   27.087                   30.766                   38.690                   40.964                   42.442                   43.229                   26.899                   30.502                   38.292                   40.533                   41.990                   42.767                   26.752                   30.334                   38.003                   40.163                   41.540                   42.276                   26.015                   29.490                   37.696                   40.105                   41.176                   41.772                   24.730                   27.238                   32.460                   33.663                   34.273                   34.610
12.000                   3.0000                   1.5000                   2000.0                   1000.0                   20.000                   31.411                   35.388                   43.490                   45.744                   47.197                   47.968                   31.532                   35.562                   43.790                   46.086                   47.566                   48.349                   31.591                   35.648                   43.936                   46.250                   47.742                   48.531                   31.409                   35.392                   43.512                   45.771                   47.228                   48.001                   31.434                   35.426                   43.565                   45.830                   47.291                   48.065                   31.576                   35.632                   43.921                   46.236                   47.730                   48.519                   31.354                   35.349                   43.527                   45.812                   47.286                   48.067                   31.444                   35.577                   43.956                   46.242                   47.652                   48.391                   30.831                   35.276                   45.414                   48.275                   49.378                   49.965                   29.172                   32.682                   39.814                   41.315                   41.985                   42.319
12.000                   3.0000                   1.5000                   2000.0                   1000.0                   25.000                   36.095                   40.321                   48.668                   50.952                   52.418                   53.191                   36.227                   40.505                   48.978                   51.301                   52.793                   53.578                   36.288                   40.591                   49.120                   51.462                   52.966                   53.757                   36.090                   40.324                   48.692                   50.982                   52.452                   53.228                   36.117                   40.358                   48.743                   51.039                   52.513                   53.290                   36.267                   40.570                   49.102                   51.445                   52.950                   53.741                   36.024                   40.276                   48.710                   51.025                   52.511                   53.293                   36.653                   41.270                   50.333                   52.739                   54.178                   54.921                   36.503                   41.921                   54.064                   57.402                   58.590                   59.165                   34.517                   38.934                   47.595                   49.335                   50.071                   50.411
12.000                   3.0000                   1.5000                   2000.0                   1000.0                   30.000                   40.918                   45.305                   53.816                   56.122                   57.597                   58.372                   41.058                   45.496                   54.130                   56.473                   57.974                   58.761                   41.120                   45.582                   54.271                   56.633                   58.145                   58.938                   40.910                   45.306                   53.841                   56.155                   57.636                   58.413                   40.937                   45.340                   53.891                   56.209                   57.693                   58.472                   41.093                   45.556                   54.248                   56.611                   58.125                   58.918                   40.836                   45.256                   53.857                   56.192                   57.687                   58.471                   42.208                   47.265                   56.992                   59.514                   60.980                   61.727                   42.744                   49.137                   63.336                   67.166                   68.475                   69.038                   40.464                   45.726                   55.662                   57.598                   58.406                   58.759
12.000                   3.0000                   1.5000                   2000.0                   1000.0                   35.000                   45.945                   50.382                   58.957                   61.276                   62.758                   63.535                   46.089                   50.577                   59.273                   61.629                   63.136                   63.925                   46.150                   50.662                   59.414                   61.788                   63.308                   64.101                   45.936                   50.382                   58.982                   61.308                   62.797                   63.576                   45.961                   50.414                   59.029                   61.360                   62.852                   63.632                   46.120                   50.632                   59.388                   61.763                   63.283                   64.078                   45.890                   50.361                   59.029                   61.376                   62.879                   63.665                   48.538                   53.810                   63.810                   66.364                   67.845                   68.593                   50.044                   56.836                   71.557                   75.490                   76.858                   77.419                   47.728                   53.382                   63.827                   65.824                   66.642                   66.999
12.000                   3.0000                   1.5000                   2000.0                   1000.0                   40.000                   50.973                   55.459                   64.099                   66.430                   67.920                   68.697                   51.120                   55.657                   64.416                   66.784                   68.299                   69.088                   51.181                   55.742                   64.557                   66.943                   68.470                   69.265                   50.962                   55.458                   64.123                   66.462                   67.958                   68.738                   50.986                   55.488                   64.168                   66.511                   68.010                   68.792                   51.146                   55.708                   64.527                   66.914                   68.442                   69.238                   50.943                   55.467                   64.200                   66.561                   68.071                   68.858                   54.869                   60.354                   70.628                   73.214                   74.709                   75.459                   57.344                   64.536                   79.778                   83.813                   85.242                   85.801                   54.992                   61.038                   71.993                   74.049                   74.877                   75.239
12.000                   3.0000                   1.5000                   2000.0                   1000.0                   45.000                   56.000                   60.536                   69.240                   71.584                   73.081                   73.860                   56.150                   60.737                   69.559                   71.939                   73.461                   74.252                   56.211                   60.821                   69.700                   72.098                   73.632                   74.429                   55.989                   60.535                   69.264                   71.616                   73.119                   73.900                   56.010                   60.562                   69.306                   71.662                   73.168                   73.952                   56.172                   60.784                   69.666                   72.066                   73.601                   74.398                   55.997                   60.572                   69.372                   71.745                   73.262                   74.051                   61.200                   66.899                   77.446                   80.063                   81.573                   82.324                   64.644                   72.235                   87.999                   92.137                   93.626                   94.182                   62.256                   68.694                   80.158                   82.274                   83.113                   83.479
12.000                   3.0000                   1.5000                   2000.0                   1000.0                   50.000                   61.117                   65.677                   74.423                   76.777                   78.281                   79.061                   61.268                   65.879                   74.743                   77.134                   78.663                   79.455                   61.329                   65.963                   74.884                   77.293                   78.834                   79.632                   61.104                   65.674                   74.446                   76.808                   78.318                   79.101                   61.124                   65.700                   74.486                   76.853                   78.366                   79.150                   61.290                   65.926                   74.852                   77.262                   78.804                   79.603                   61.213                   65.816                   74.661                   77.046                   78.571                   79.362                   67.865                   73.679                   84.406                   87.058                   88.580                   89.333                   72.172                   79.912                   95.821                   99.977                   101.51                   102.08                   69.817                   76.376                   87.963                   90.089                   90.924                   91.285
12.000                   3.0000                   1.5000                   2000.0                   1000.0                   55.000                   66.255                   70.834                   79.617                   81.981                   83.492                   84.273                   66.408                   71.037                   79.938                   82.339                   83.874                   84.668                   66.468                   71.121                   80.079                   82.498                   84.046                   84.845                   66.241                   70.830                   79.638                   82.011                   83.527                   84.311                   66.259                   70.854                   79.677                   82.054                   83.573                   84.359                   66.431                   71.086                   80.049                   82.470                   84.019                   84.818                   66.470                   71.093                   79.980                   82.377                   83.910                   84.701                   74.614                   80.519                   91.402                   94.089                   95.624                   96.378                   79.758                   87.583                   103.54                   107.70                   109.27                   109.85                   77.453                   84.065                   95.677                   97.801                   98.629                   98.983
12.000                   3.0000                   1.5000                   2000.0                   1000.0                   60.000                   71.394                   75.991                   84.810                   87.185                   88.702                   89.485                   71.547                   76.195                   85.133                   87.544                   89.086                   89.880                   71.607                   76.278                   85.273                   87.703                   89.257                   90.058                   71.378                   75.986                   84.830                   87.213                   88.736                   89.521                   71.395                   76.008                   84.867                   87.255                   88.781                   89.567                   71.572                   76.245                   85.246                   87.677                   89.233                   90.034                   71.727                   76.371                   85.299                   87.708                   89.248                   90.041                   81.363                   87.358                   98.398                   101.12                   102.67                   103.42                   87.343                   95.254                   111.26                   115.41                   117.03                   117.62                   85.089                   91.753                   103.39                   105.51                   106.33                   106.68
12.000                   3.0000                   1.5000                   2000.0                   1000.0                   65.000                   76.533                   81.148                   90.004                   92.389                   93.913                   94.696                   76.687                   81.353                   90.327                   92.749                   94.298                   95.093                   76.746                   81.436                   90.468                   92.908                   94.469                   95.270                   76.516                   81.141                   90.023                   92.416                   93.945                   94.731                   76.530                   81.162                   90.058                   92.455                   93.988                   94.776                   76.713                   81.405                   90.443                   92.885                   94.448                   95.250                   76.984                   81.649                   90.619                   93.039                   94.586                   95.381                   88.111                   94.197                   105.39                   108.15                   109.71                   110.47                   94.928                   102.93                   118.99                   123.13                   124.80                   125.40                   92.725                   99.442                   111.11                   113.22                   114.04                   114.38
12.000                   3.0000                   1.5000                   2000.0                   1000.0                   70.000                   81.671                   86.304                   95.198                   97.593                   99.123                   99.908                   81.827                   86.511                   95.522                   97.954                   99.510                   100.31                   81.885                   86.593                   95.663                   98.113                   99.681                   100.48                   81.653                   86.297                   95.215                   97.618                   99.154                   99.941                   81.666                   86.315                   95.248                   97.656                   99.195                   99.984                   81.854                   86.564                   95.640                   98.093                   99.662                   100.47                   82.242                   86.926                   95.938                   98.369                   99.925                   100.72                   94.860                   101.04                   112.39                   115.18                   116.75                   117.51                   102.51                   110.60                   126.71                   130.85                   132.56                   133.17                   100.36                   107.13                   118.82                   120.94                   121.75                   122.08
12.000                   3.0000                   1.5000                   2000.0                   1000.0                   75.000                   86.847                   91.499                   100.43                   102.84                   104.38                   105.17                   87.003                   91.705                   100.76                   103.20                   104.77                   105.57                   87.062                   91.788                   100.90                   103.36                   104.94                   105.75                   86.828                   91.490                   100.45                   102.87                   104.41                   105.20                   86.839                   91.507                   100.48                   102.90                   104.45                   105.24                   87.038                   91.767                   100.89                   103.35                   104.93                   105.74                   87.597                   92.301                   101.36                   103.80                   105.37                   106.17                   101.66                   107.89                   119.34                   122.16                   123.74                   124.49                   110.07                   118.21                   134.41                   138.58                   140.33                   140.96                   107.96                   114.73                   126.40                   128.51                   129.30                   129.63