% Model:              batchmodel_COIL_N_12_COIL_kr_1.5_COIL_kh_2_FUNZ_freq_6000_FUNZ_I_eff_4000.mph
% Version:            COMSOL 6.0.0.318
% Date:               Feb 8 2022, 19:04
% Table:              Tabella 1 - GRIGLIA_T
% COIL_N                 COIL_kr                  COIL_kh                  FUNZ_freq                FUNZ_I_eff               Time (s)                 Temperatura (degC), Point: (0, 0)Temperatura (degC), Point: (15, 0)Temperatura (degC), Point: (27.483, 0)Temperatura (degC), Point: (28.742, 0)Temperatura (degC), Point: (29.497, 0)Temperatura (degC), Point: (29.99, 0)Temperatura (degC), Point: (0, 62.5)Temperatura (degC), Point: (15, 62.5)Temperatura (degC), Point: (27.483, 62.5)Temperatura (degC), Point: (28.742, 62.5)Temperatura (degC), Point: (29.497, 62.5)Temperatura (degC), Point: (29.99, 62.5)Temperatura (degC), Point: (0, 125)Temperatura (degC), Point: (15, 125)Temperatura (degC), Point: (27.483, 125)Temperatura (degC), Point: (28.742, 125)Temperatura (degC), Point: (29.497, 125)Temperatura (degC), Point: (29.99, 125)Temperatura (degC), Point: (0, 187.5)Temperatura (degC), Point: (15, 187.5)Temperatura (degC), Point: (27.483, 187.5)Temperatura (degC), Point: (28.742, 187.5)Temperatura (degC), Point: (29.497, 187.5)Temperatura (degC), Point: (29.99, 187.5)Temperatura (degC), Point: (0, 250)Temperatura (degC), Point: (15, 250)Temperatura (degC), Point: (27.483, 250)Temperatura (degC), Point: (28.742, 250)Temperatura (degC), Point: (29.497, 250)Temperatura (degC), Point: (29.99, 250)Temperatura (degC), Point: (0, 312.5)Temperatura (degC), Point: (15, 312.5)Temperatura (degC), Point: (27.483, 312.5)Temperatura (degC), Point: (28.742, 312.5)Temperatura (degC), Point: (29.497, 312.5)Temperatura (degC), Point: (29.99, 312.5)Temperatura (degC), Point: (0, 375)Temperatura (degC), Point: (15, 375)Temperatura (degC), Point: (27.483, 375)Temperatura (degC), Point: (28.742, 375)Temperatura (degC), Point: (29.497, 375)Temperatura (degC), Point: (29.99, 375)Temperatura (degC), Point: (0, 437.5)Temperatura (degC), Point: (15, 437.5)Temperatura (degC), Point: (27.483, 437.5)Temperatura (degC), Point: (28.742, 437.5)Temperatura (degC), Point: (29.497, 437.5)Temperatura (degC), Point: (29.99, 437.5)Temperatura (degC), Point: (0, 468.75)Temperatura (degC), Point: (15, 468.75)Temperatura (degC), Point: (27.483, 468.75)Temperatura (degC), Point: (28.742, 468.75)Temperatura (degC), Point: (29.497, 468.75)Temperatura (degC), Point: (29.99, 468.75)Temperatura (degC), Point: (0, 492.19)Temperatura (degC), Point: (15, 492.19)Temperatura (degC), Point: (27.483, 492.19)Temperatura (degC), Point: (28.742, 492.19)Temperatura (degC), Point: (29.497, 492.19)Temperatura (degC), Point: (29.99, 492.19)
12.000                   1.5000                   2.0000                   6000.0                   4000.0                   0.0000                   20.000                   20.000                   20.000                   20.000                   20.034                   20.251                   20.000                   20.000                   20.000                   20.000                   20.086                   20.397                   20.000                   20.000                   20.000                   20.000                   20.115                   20.467                   20.000                   20.000                   20.000                   20.000                   20.049                   20.294                   20.000                   20.000                   20.000                   20.000                   20.047                   20.286                   20.000                   20.000                   20.000                   20.000                   20.114                   20.464                   20.000                   20.000                   20.000                   20.000                   20.090                   20.406                   20.000                   20.000                   20.000                   20.000                   20.033                   20.250                   20.000                   20.000                   20.000                   20.000                   20.108                   20.449                   20.000                   20.000                   20.000                   20.000                   20.101                   20.432
12.000                   1.5000                   2.0000                   6000.0                   4000.0                   5.0000                   26.013                   46.120                   149.94                   169.76                   181.63                   186.27                   28.314                   57.741                   219.29                   251.77                   271.77                   278.53                   29.617                   64.108                   255.98                   294.76                   318.00                   325.68                   26.718                   49.719                   169.84                   192.16                   205.77                   211.03                   26.623                   49.143                   165.33                   187.34                   201.03                   206.22                   29.473                   63.363                   250.99                   289.68                   313.42                   321.07                   28.431                   58.267                   220.63                   253.39                   273.74                   280.48                   25.980                   45.998                   149.90                   169.32                   181.36                   185.96                   29.218                   61.988                   244.14                   281.65                   304.62                   312.08                   33.506                   68.358                   241.34                   275.09                   295.96                   302.87
12.000                   1.5000                   2.0000                   6000.0                   4000.0                   10.000                   66.991                   116.07                   277.79                   304.90                   321.09                   326.73                   79.214                   144.81                   378.31                   420.49                   445.60                   453.39                   85.896                   160.16                   432.40                   481.76                   510.92                   519.80                   70.680                   124.69                   305.14                   335.32                   353.81                   360.17                   70.028                   123.08                   300.60                   330.96                   349.35                   355.64                   85.057                   158.23                   424.94                   474.67                   503.47                   512.04                   79.482                   145.25                   377.52                   419.46                   443.32                   450.97                   66.652                   115.17                   274.50                   300.56                   316.42                   322.08                   84.035                   155.11                   413.37                   461.66                   489.68                   497.98                   94.773                   166.92                   404.90                   445.94                   470.08                   477.56
12.000                   1.5000                   2.0000                   6000.0                   4000.0                   15.000                   135.19                   203.14                   408.36                   442.00                   462.11                   468.53                   156.56                   242.99                   531.15                   583.79                   613.25                   621.49                   168.03                   263.90                   592.14                   653.59                   687.84                   697.21                   141.53                   214.99                   443.55                   482.74                   505.69                   512.61                   140.34                   212.84                   438.29                   476.59                   499.18                   506.02                   166.55                   261.36                   587.31                   649.02                   682.76                   691.97                   156.71                   243.29                   532.66                   585.48                   615.62                   624.11                   134.38                   201.62                   404.68                   438.33                   458.54                   464.84                   164.90                   256.95                   571.52                   630.56                   663.40                   672.36                   179.20                   270.75                   554.28                   603.82                   631.85                   639.66
12.000                   1.5000                   2.0000                   6000.0                   4000.0                   20.000                   212.39                   292.15                   525.20                   561.93                   583.02                   590.02                   239.46                   338.04                   655.05                   712.57                   744.40                   753.05                   253.91                   362.30                   727.13                   802.30                   844.37                   855.32                   220.32                   305.80                   565.86                   610.12                   636.11                   643.68                   218.90                   303.62                   560.33                   602.53                   627.78                   635.29                   252.00                   359.27                   718.68                   792.56                   832.01                   842.33                   239.72                   339.00                   662.09                   720.16                   753.44                   762.77                   211.17                   290.29                   522.89                   560.22                   582.72                   589.76                   249.90                   354.17                   703.03                   774.60                   814.53                   824.60                   265.20                   367.39                   667.62                   716.74                   746.16                   754.50
12.000                   1.5000                   2.0000                   6000.0                   4000.0                   25.000                   293.04                   380.82                   641.27                   685.52                   710.20                   716.87                   323.24                   428.59                   762.29                   831.15                   867.04                   875.64                   339.46                   455.31                   897.89                   991.37                   1028.8                   1035.9                   301.73                   394.75                   674.40                   722.73                   749.57                   756.69                   300.31                   392.74                   669.43                   716.87                   743.18                   750.18                   337.41                   452.84                   876.62                   960.61                   996.24                   1003.4                   323.76                   430.36                   773.35                   845.30                   882.02                   890.73                   291.45                   378.69                   638.17                   682.16                   706.70                   713.35                   334.78                   446.00                   836.11                   920.37                   959.62                   968.22                   350.36                   457.04                   767.23                   828.56                   860.87                   868.62
12.000                   1.5000                   2.0000                   6000.0                   4000.0                   30.000                   370.64                   460.37                   704.55                   742.49                   763.93                   769.56                   401.91                   507.69                   818.91                   873.05                   900.09                   906.29                   419.71                   543.07                   1079.9                   1128.5                   1139.9                   1139.8                   379.35                   473.29                   732.73                   775.70                   799.80                   805.94                   377.99                   471.33                   727.37                   768.99                   792.38                   798.40                   418.08                   540.93                   1027.3                   1079.5                   1094.3                   1095.3                   402.83                   510.24                   829.18                   883.54                   910.46                   916.54                   368.81                   458.14                   701.34                   738.91                   760.11                   765.70                   414.09                   529.87                   959.00                   1017.7                   1038.1                   1041.1                   428.25                   533.72                   818.72                   864.37                   887.35                   892.61
12.000                   1.5000                   2.0000                   6000.0                   4000.0                   35.000                   438.42                   524.50                   748.73                   785.56                   806.34                   811.57                   470.89                   573.20                   864.78                   910.55                   933.06                   937.98                   492.02                   620.33                   1137.8                   1165.3                   1170.6                   1169.2                   447.07                   537.00                   779.25                   821.76                   844.54                   850.05                   445.72                   534.94                   772.72                   813.94                   836.25                   841.69                   490.49                   616.58                   1102.6                   1134.1                   1141.1                   1140.1                   472.30                   576.63                   876.63                   921.76                   943.58                   948.24                   436.51                   522.21                   744.55                   780.53                   800.92                   806.09                   484.91                   603.62                   1055.6                   1094.9                   1105.2                   1105.2                   495.98                   597.22                   862.99                   900.12                   918.71                   922.78
12.000                   1.5000                   2.0000                   6000.0                   4000.0                   40.000                   496.80                   577.48                   788.62                   825.15                   844.83                   849.57                   531.68                   628.63                   912.46                   950.73                   969.03                   972.74                   556.72                   684.72                   1152.0                   1170.2                   1172.9                   1170.9                   505.79                   589.99                   821.51                   861.61                   882.53                   887.39                   504.36                   587.82                   814.38                   853.68                   874.30                   879.12                   554.93                   679.68                   1134.7                   1155.4                   1158.9                   1157.2                   533.60                   632.89                   928.16                   965.40                   982.78                   986.19                   494.86                   575.11                   783.13                   818.79                   838.15                   842.85                   548.17                   665.99                   1104.1                   1129.9                   1135.3                   1134.1                   555.82                   650.94                   910.70                   941.58                   956.53                   959.57
12.000                   1.5000                   2.0000                   6000.0                   4000.0                   45.000                   545.76                   620.17                   823.10                   857.25                   875.31                   879.50                   582.76                   674.69                   961.94                   994.50                   1008.4                   1010.7                   610.30                   736.98                   1156.7                   1170.0                   1171.3                   1169.0                   555.26                   633.09                   855.59                   891.71                   910.33                   914.48                   553.73                   630.78                   848.59                   884.25                   902.73                   906.88                   608.25                   731.21                   1147.2                   1162.0                   1163.8                   1161.8                   585.05                   679.55                   981.86                   1013.8                   1026.6                   1028.3                   543.81                   617.74                   816.86                   850.39                   868.21                   872.39                   600.91                   716.26                   1126.5                   1145.0                   1148.1                   1146.4                   605.67                   695.00                   958.72                   985.00                   996.28                   998.01
12.000                   1.5000                   2.0000                   6000.0                   4000.0                   50.000                   588.98                   657.16                   852.94                   884.08                   900.37                   904.01                   627.56                   715.71                   1011.0                   1039.0                   1048.7                   1049.3                   656.38                   784.87                   1158.2                   1168.1                   1168.4                   1166.1                   598.97                   670.73                   884.63                   916.35                   932.50                   935.92                   597.34                   668.28                   877.91                   909.52                   925.71                   929.18                   654.18                   778.46                   1153.1                   1163.9                   1164.5                   1162.2                   630.10                   721.15                   1032.8                   1059.9                   1068.1                   1068.2                   587.06                   654.74                   846.51                   877.23                   893.37                   897.01                   646.56                   761.37                   1139.2                   1152.7                   1154.3                   1152.2                   649.05                   735.06                   1008.8                   1031.1                   1038.7                   1039.0
12.000                   1.5000                   2.0000                   6000.0                   4000.0                   55.000                   625.65                   688.02                   876.68                   904.46                   918.83                   921.90                   665.08                   752.28                   1053.8                   1075.9                   1081.9                   1081.3                   693.47                   831.53                   1158.5                   1166.1                   1165.8                   1163.3                   636.05                   702.35                   908.57                   935.52                   949.14                   951.88                   634.35                   699.74                   901.88                   929.00                   942.78                   945.59                   691.33                   824.88                   1155.2                   1163.4                   1163.3                   1160.9                   667.72                   758.90                   1072.1                   1092.3                   1097.1                   1096.1                   623.80                   685.67                   870.63                   898.18                   912.54                   915.63                   683.85                   805.17                   1144.4                   1154.7                   1155.3                   1153.0                   684.98                   775.60                   1067.4                   1084.2                   1087.9                   1086.7
12.000                   1.5000                   2.0000                   6000.0                   4000.0                   60.000                   656.51                   713.42                   895.86                   920.29                   932.86                   935.43                   695.35                   790.54                   1081.8                   1098.7                   1102.3                   1101.0                   721.41                   873.82                   1159.5                   1165.4                   1164.6                   1162.0                   667.16                   729.43                   930.07                   952.75                   964.05                   966.16                   665.41                   726.41                   922.94                   945.96                   957.54                   959.74                   719.38                   867.50                   1157.1                   1163.4                   1162.8                   1160.2                   697.86                   798.43                   1096.0                   1111.1                   1113.8                   1112.3                   654.76                   711.17                   890.45                   914.84                   927.45                   930.05                   712.33                   846.59                   1147.5                   1155.5                   1155.4                   1153.0                   712.87                   825.05                   1107.8                   1118.8                   1120.0                   1118.0
12.000                   1.5000                   2.0000                   6000.0                   4000.0                   65.000                   683.02                   736.05                   912.29                   933.49                   944.37                   946.47                   720.93                   829.22                   1101.7                   1114.3                   1116.2                   1114.4                   748.62                   912.53                   1161.3                   1165.8                   1164.6                   1162.0                   693.66                   755.75                   950.83                   969.77                   978.94                   980.43                   691.91                   751.98                   942.78                   962.08                   971.60                   973.21                   746.21                   906.70                   1159.3                   1164.1                   1163.0                   1160.4                   723.46                   837.89                   1112.4                   1123.6                   1124.9                   1122.9                   681.43                   733.78                   907.61                   928.90                   939.85                   941.99                   738.08                   885.56                   1150.3                   1156.5                   1155.9                   1153.4                   739.68                   877.62                   1137.8                   1144.4                   1144.0                   1141.6
12.000                   1.5000                   2.0000                   6000.0                   4000.0                   70.000                   705.29                   757.05                   926.47                   944.64                   953.91                   955.58                   743.78                   867.60                   1115.4                   1124.7                   1125.3                   1123.3                   778.94                   947.74                   1163.8                   1167.2                   1165.7                   1163.0                   715.84                   782.63                   971.36                   987.17                   994.40                   995.28                   714.09                   777.79                   961.92                   977.96                   985.56                   986.61                   775.62                   942.45                   1162.0                   1165.7                   1164.2                   1161.5                   746.69                   876.44                   1123.5                   1131.8                   1132.1                   1129.9                   703.90                   754.64                   922.54                   940.85                   950.23                   951.94                   764.57                   921.98                   1153.4                   1158.1                   1157.0                   1154.4                   770.34                   931.06                   1160.0                   1163.9                   1162.5                   1159.8
12.000                   1.5000                   2.0000                   6000.0                   4000.0                   75.000                   722.34                   778.75                   938.85                   954.23                   962.02                   963.26                   769.88                   903.70                   1124.4                   1131.4                   1131.3                   1129.0                   820.79                   979.17                   1167.2                   1169.8                   1168.0                   1165.2                   733.72                   812.08                   992.09                   1005.8                   1011.4                   1011.6                   731.79                   806.12                   981.02                   994.53                   1000.5                   1001.0                   816.29                   974.33                   1165.4                   1168.2                   1166.4                   1163.7                   774.08                   912.29                   1131.2                   1137.4                   1137.0                   1134.6                   721.10                   776.10                   935.53                   951.11                   959.02                   960.31                   800.87                   955.38                   1157.2                   1160.7                   1159.3                   1156.6                   819.35                   981.18                   1177.5                   1179.8                   1177.8                   1175.0