% Model:              batchmodel_COIL_N_12_COIL_kr_3_COIL_kh_2_FUNZ_freq_2000_FUNZ_I_eff_1000.mph
% Version:            COMSOL 6.0.0.318
% Date:               Feb 8 2022, 20:19
% Table:              Tabella 1 - GRIGLIA_T
% COIL_N                 COIL_kr                  COIL_kh                  FUNZ_freq                FUNZ_I_eff               Time (s)                 Temperatura (degC), Point: (0, 0)Temperatura (degC), Point: (15, 0)Temperatura (degC), Point: (25.641, 0)Temperatura (degC), Point: (27.821, 0)Temperatura (degC), Point: (29.128, 0)Temperatura (degC), Point: (29.99, 0)Temperatura (degC), Point: (0, 62.5)Temperatura (degC), Point: (15, 62.5)Temperatura (degC), Point: (25.641, 62.5)Temperatura (degC), Point: (27.821, 62.5)Temperatura (degC), Point: (29.128, 62.5)Temperatura (degC), Point: (29.99, 62.5)Temperatura (degC), Point: (0, 125)Temperatura (degC), Point: (15, 125)Temperatura (degC), Point: (25.641, 125)Temperatura (degC), Point: (27.821, 125)Temperatura (degC), Point: (29.128, 125)Temperatura (degC), Point: (29.99, 125)Temperatura (degC), Point: (0, 187.5)Temperatura (degC), Point: (15, 187.5)Temperatura (degC), Point: (25.641, 187.5)Temperatura (degC), Point: (27.821, 187.5)Temperatura (degC), Point: (29.128, 187.5)Temperatura (degC), Point: (29.99, 187.5)Temperatura (degC), Point: (0, 250)Temperatura (degC), Point: (15, 250)Temperatura (degC), Point: (25.641, 250)Temperatura (degC), Point: (27.821, 250)Temperatura (degC), Point: (29.128, 250)Temperatura (degC), Point: (29.99, 250)Temperatura (degC), Point: (0, 312.5)Temperatura (degC), Point: (15, 312.5)Temperatura (degC), Point: (25.641, 312.5)Temperatura (degC), Point: (27.821, 312.5)Temperatura (degC), Point: (29.128, 312.5)Temperatura (degC), Point: (29.99, 312.5)Temperatura (degC), Point: (0, 375)Temperatura (degC), Point: (15, 375)Temperatura (degC), Point: (25.641, 375)Temperatura (degC), Point: (27.821, 375)Temperatura (degC), Point: (29.128, 375)Temperatura (degC), Point: (29.99, 375)Temperatura (degC), Point: (0, 437.5)Temperatura (degC), Point: (15, 437.5)Temperatura (degC), Point: (25.641, 437.5)Temperatura (degC), Point: (27.821, 437.5)Temperatura (degC), Point: (29.128, 437.5)Temperatura (degC), Point: (29.99, 437.5)Temperatura (degC), Point: (0, 468.75)Temperatura (degC), Point: (15, 468.75)Temperatura (degC), Point: (25.641, 468.75)Temperatura (degC), Point: (27.821, 468.75)Temperatura (degC), Point: (29.128, 468.75)Temperatura (degC), Point: (29.99, 468.75)Temperatura (degC), Point: (0, 492.19)Temperatura (degC), Point: (15, 492.19)Temperatura (degC), Point: (25.641, 492.19)Temperatura (degC), Point: (27.821, 492.19)Temperatura (degC), Point: (29.128, 492.19)Temperatura (degC), Point: (29.99, 492.19)
12.000                   3.0000                   2.0000                   2000.0                   1000.0                   0.0000                   20.000                   20.000                   20.000                   20.000                   20.000                   20.025                   20.000                   20.000                   20.000                   20.000                   20.000                   20.026                   20.000                   20.000                   20.000                   20.000                   20.000                   20.026                   20.000                   20.000                   20.000                   20.000                   20.000                   20.026                   20.000                   20.000                   20.000                   20.000                   20.000                   20.026                   20.000                   20.000                   20.000                   20.000                   20.000                   20.026                   20.000                   20.000                   20.000                   20.000                   20.000                   20.026                   20.000                   20.000                   20.000                   20.000                   20.000                   20.025                   20.000                   20.000                   20.000                   20.000                   20.000                   20.022                   20.000                   20.000                   20.000                   20.000                   20.000                   20.013
12.000                   3.0000                   2.0000                   2000.0                   1000.0                   5.0000                   20.615                   21.918                   27.540                   29.687                   31.085                   31.831                   20.621                   21.932                   27.572                   29.713                   31.107                   31.861                   20.625                   21.950                   27.666                   29.828                   31.232                   31.992                   20.617                   21.924                   27.581                   29.759                   31.170                   31.922                   20.617                   21.922                   27.553                   29.704                   31.096                   31.846                   20.626                   21.955                   27.682                   29.850                   31.252                   32.012                   20.634                   21.973                   27.744                   29.952                   31.375                   32.147                   20.638                   21.973                   27.660                   29.814                   31.153                   31.806                   20.634                   22.093                   29.008                   31.725                   32.995                   33.549                   20.631                   21.808                   26.113                   27.777                   28.514                   28.867
12.000                   3.0000                   2.0000                   2000.0                   1000.0                   10.000                   23.051                   25.882                   33.305                   35.522                   36.952                   37.705                   23.085                   25.948                   33.456                   35.710                   37.146                   37.909                   23.098                   25.989                   33.591                   35.864                   37.323                   38.100                   23.063                   25.906                   33.375                   35.634                   37.068                   37.829                   23.067                   25.913                   33.387                   35.629                   37.058                   37.817                   23.109                   26.008                   33.621                   35.891                   37.345                   38.115                   23.154                   26.089                   33.800                   36.117                   37.590                   38.373                   23.117                   25.989                   33.410                   35.577                   36.909                   37.582                   22.816                   25.414                   32.052                   33.829                   34.950                   35.497                   22.519                   24.528                   28.859                   30.021                   30.603                   30.967
12.000                   3.0000                   2.0000                   2000.0                   1000.0                   15.000                   27.084                   30.688                   38.586                   40.832                   42.289                   43.064                   27.144                   30.786                   38.770                   41.045                   42.520                   43.304                   27.162                   30.826                   38.861                   41.148                   42.633                   43.423                   27.105                   30.721                   38.646                   40.902                   42.364                   43.142                   27.112                   30.730                   38.659                   40.915                   42.377                   43.155                   27.182                   30.854                   38.899                   41.187                   42.671                   43.461                   27.258                   30.959                   39.042                   41.327                   42.807                   43.592                   27.009                   30.561                   38.227                   40.372                   41.757                   42.499                   26.061                   29.070                   35.379                   37.080                   38.226                   38.857                   25.129                   27.270                   31.182                   32.160                   32.772                   33.123
12.000                   3.0000                   2.0000                   2000.0                   1000.0                   20.000                   31.526                   35.573                   43.801                   46.078                   47.547                   48.326                   31.608                   35.694                   44.007                   46.314                   47.803                   48.590                   31.630                   35.731                   44.076                   46.391                   47.887                   48.680                   31.554                   35.612                   43.859                   46.143                   47.617                   48.398                   31.562                   35.620                   43.866                   46.148                   47.623                   48.404                   31.657                   35.764                   44.118                   46.435                   47.932                   48.724                   31.752                   35.870                   44.211                   46.515                   48.004                   48.792                   31.203                   35.090                   42.928                   45.091                   46.489                   47.235                   29.475                   32.613                   38.799                   40.498                   41.677                   42.324                   27.845                   29.963                   33.660                   34.579                   35.183                   35.527
12.000                   3.0000                   2.0000                   2000.0                   1000.0                   25.000                   36.437                   40.619                   48.978                   51.274                   52.752                   53.532                   36.527                   40.746                   49.190                   51.516                   53.014                   53.803                   36.552                   40.787                   49.264                   51.599                   53.105                   53.900                   36.467                   40.660                   49.039                   51.342                   52.826                   53.609                   36.475                   40.668                   49.044                   51.347                   52.831                   53.613                   36.581                   40.821                   49.304                   51.639                   53.146                   53.939                   36.652                   40.891                   49.346                   51.669                   53.167                   53.957                   35.826                   39.847                   47.821                   50.005                   51.412                   52.159                   33.564                   36.936                   43.676                   45.504                   46.675                   47.315                   31.360                   33.621                   37.616                   38.615                   39.221                   39.564
12.000                   3.0000                   2.0000                   2000.0                   1000.0                   30.000                   41.347                   45.665                   54.154                   56.470                   57.957                   58.739                   41.445                   45.799                   54.373                   56.717                   58.224                   59.015                   41.474                   45.844                   54.453                   56.808                   58.324                   59.120                   41.380                   45.708                   54.219                   56.541                   58.034                   58.819                   41.388                   45.715                   54.223                   56.545                   58.038                   58.822                   41.506                   45.879                   54.489                   56.844                   58.359                   59.154                   41.551                   45.913                   54.481                   56.822                   58.330                   59.122                   40.450                   44.603                   52.715                   54.919                   56.335                   57.084                   37.653                   41.258                   48.552                   50.510                   51.672                   52.306                   34.874                   37.280                   41.571                   42.651                   43.260                   43.600
12.000                   3.0000                   2.0000                   2000.0                   1000.0                   35.000                   46.258                   50.711                   59.331                   61.666                   63.163                   63.946                   46.364                   50.852                   59.556                   61.919                   63.435                   64.227                   46.396                   50.901                   59.641                   62.016                   63.542                   64.340                   46.292                   50.755                   59.398                   61.741                   63.243                   64.029                   46.301                   50.762                   59.401                   61.743                   63.245                   64.031                   46.430                   50.936                   59.675                   62.049                   63.572                   64.369                   46.451                   50.934                   59.615                   61.976                   63.493                   64.287                   45.074                   49.360                   57.608                   59.833                   61.259                   62.009                   41.742                   45.581                   53.429                   55.517                   56.670                   57.297                   38.388                   40.938                   45.527                   46.687                   47.298                   47.636
12.000                   3.0000                   2.0000                   2000.0                   1000.0                   40.000                   51.309                   55.821                   64.514                   66.863                   68.367                   69.152                   51.419                   55.966                   64.743                   67.120                   68.643                   69.437                   51.455                   56.019                   64.835                   67.226                   68.759                   69.558                   51.345                   55.867                   64.583                   66.940                   68.450                   69.238                   51.353                   55.873                   64.585                   66.941                   68.450                   69.237                   51.491                   56.055                   64.869                   67.258                   68.789                   69.588                   51.475                   56.012                   64.766                   67.142                   68.667                   69.462                   49.864                   54.225                   62.570                   64.811                   66.244                   66.995                   46.141                   50.148                   58.367                   60.526                   61.679                   62.303                   42.347                   45.018                   49.829                   51.042                   51.655                   51.992
12.000                   3.0000                   2.0000                   2000.0                   1000.0                   45.000                   56.396                   60.948                   69.699                   72.061                   73.572                   74.358                   56.509                   61.095                   69.931                   72.320                   73.850                   74.645                   56.548                   61.153                   70.031                   72.435                   73.975                   74.775                   56.432                   60.993                   69.769                   72.140                   73.657                   74.445                   56.439                   60.999                   69.770                   72.139                   73.655                   74.443                   56.585                   61.190                   70.066                   72.468                   74.007                   74.807                   56.529                   61.105                   69.921                   72.311                   73.844                   74.641                   54.694                   59.116                   67.548                   69.804                   71.244                   71.996                   50.617                   54.777                   63.320                   65.536                   66.692                   67.312                   46.416                   49.203                   54.218                   55.477                   56.092                   56.428
12.000                   3.0000                   2.0000                   2000.0                   1000.0                   50.000                   61.483                   66.074                   74.884                   77.258                   78.777                   79.564                   61.598                   66.224                   75.119                   77.521                   79.058                   79.853                   61.641                   66.286                   75.227                   77.644                   79.192                   79.993                   61.519                   66.120                   74.956                   77.339                   78.863                   79.653                   61.525                   66.125                   74.955                   77.337                   78.860                   79.649                   61.679                   66.324                   75.262                   77.678                   79.225                   80.026                   61.583                   66.197                   75.077                   77.481                   79.021                   79.819                   59.525                   64.007                   72.527                   74.798                   76.244                   76.997                   55.093                   59.405                   68.273                   70.546                   71.705                   72.322                   50.486                   53.388                   58.606                   59.911                   60.529                   60.863
12.000                   3.0000                   2.0000                   2000.0                   1000.0                   55.000                   66.629                   71.246                   80.101                   82.487                   84.013                   84.801                   66.745                   71.398                   80.338                   82.751                   84.295                   85.092                   66.791                   71.463                   80.451                   82.881                   84.435                   85.237                   66.664                   71.292                   80.173                   82.569                   84.100                   84.891                   66.670                   71.295                   80.172                   82.565                   84.095                   84.886                   66.828                   71.499                   80.485                   82.914                   84.468                   85.270                   66.683                   71.322                   80.248                   82.664                   84.211                   85.010                   64.423                   68.942                   77.521                   79.803                   81.255                   82.008                   59.735                   64.149                   73.243                   75.558                   76.713                   77.327                   54.841                   57.826                   63.187                   64.525                   65.142                   65.474
12.000                   3.0000                   2.0000                   2000.0                   1000.0                   60.000                   71.814                   76.448                   85.340                   87.737                   89.269                   90.059                   71.931                   76.600                   85.578                   88.002                   89.553                   90.352                   71.978                   76.668                   85.694                   88.135                   89.697                   90.500                   71.848                   76.493                   85.412                   87.818                   89.357                   90.149                   71.854                   76.496                   85.409                   87.814                   89.351                   90.143                   72.013                   76.702                   85.726                   88.166                   89.727                   90.530                   71.812                   76.468                   85.431                   87.857                   89.410                   90.210                   69.364                   73.907                   82.525                   84.815                   86.272                   87.026                   64.488                   68.970                   78.224                   80.572                   81.719                   82.330                   59.387                   62.434                   67.897                   69.258                   69.873                   70.201
12.000                   3.0000                   2.0000                   2000.0                   1000.0                   65.000                   76.999                   81.649                   90.579                   92.987                   94.526                   95.317                   77.116                   81.802                   90.818                   93.253                   94.811                   95.611                   77.165                   81.872                   90.938                   93.389                   94.958                   95.763                   77.032                   81.694                   90.651                   93.067                   94.613                   95.407                   77.037                   81.697                   90.647                   93.062                   94.607                   95.400                   77.198                   81.904                   90.967                   93.418                   94.986                   95.791                   76.942                   81.614                   90.614                   93.049                   94.609                   95.409                   74.305                   78.871                   87.528                   89.827                   91.290                   92.044                   69.240                   73.791                   83.205                   85.585                   86.725                   87.332                   63.933                   67.042                   72.607                   73.990                   74.603                   74.928
12.000                   3.0000                   2.0000                   2000.0                   1000.0                   70.000                   82.183                   86.851                   95.817                   98.236                   99.783                   100.57                   82.301                   87.005                   96.058                   98.504                   100.07                   100.87                   82.353                   87.077                   96.181                   98.644                   100.22                   101.03                   82.217                   86.895                   95.889                   98.317                   99.870                   100.66                   82.221                   86.897                   95.885                   98.311                   99.863                   100.66                   82.383                   87.106                   96.207                   98.670                   100.25                   101.05                   82.072                   86.761                   95.796                   98.242                   99.808                   100.61                   79.246                   83.835                   92.532                   94.840                   96.307                   97.063                   73.993                   78.612                   88.186                   90.598                   91.730                   92.334                   68.479                   71.650                   77.317                   78.723                   79.333                   79.656
12.000                   3.0000                   2.0000                   2000.0                   1000.0                   75.000                   87.368                   92.053                   101.06                   103.49                   105.04                   105.83                   87.486                   92.207                   101.30                   103.75                   105.33                   106.13                   87.540                   92.282                   101.42                   103.90                   105.48                   106.29                   87.401                   92.096                   101.13                   103.57                   105.13                   105.92                   87.405                   92.098                   101.12                   103.56                   105.12                   105.91                   87.568                   92.309                   101.45                   103.92                   105.50                   106.31                   87.202                   91.907                   100.98                   103.43                   105.01                   105.81                   84.187                   88.800                   97.536                   99.852                   101.33                   102.08                   78.745                   83.433                   93.167                   95.611                   96.736                   97.337                   73.025                   76.258                   82.027                   83.456                   84.064                   84.383