% Model:              batchmodel_COIL_N_12_COIL_kr_2.25_COIL_kh_1_FUNZ_freq_10000_FUNZ_I_eff_2500.mph
% Version:            COMSOL 6.0.0.318
% Date:               Feb 8 2022, 19:13
% Table:              Tabella 1 - GRIGLIA_T
% COIL_N                 COIL_kr                  COIL_kh                  FUNZ_freq                FUNZ_I_eff               Time (s)                 Temperatura (degC), Point: (0, 0)Temperatura (degC), Point: (15, 0)Temperatura (degC), Point: (28.051, 0)Temperatura (degC), Point: (29.025, 0)Temperatura (degC), Point: (29.61, 0)Temperatura (degC), Point: (29.99, 0)Temperatura (degC), Point: (0, 62.5)Temperatura (degC), Point: (15, 62.5)Temperatura (degC), Point: (28.051, 62.5)Temperatura (degC), Point: (29.025, 62.5)Temperatura (degC), Point: (29.61, 62.5)Temperatura (degC), Point: (29.99, 62.5)Temperatura (degC), Point: (0, 125)Temperatura (degC), Point: (15, 125)Temperatura (degC), Point: (28.051, 125)Temperatura (degC), Point: (29.025, 125)Temperatura (degC), Point: (29.61, 125)Temperatura (degC), Point: (29.99, 125)Temperatura (degC), Point: (0, 187.5)Temperatura (degC), Point: (15, 187.5)Temperatura (degC), Point: (28.051, 187.5)Temperatura (degC), Point: (29.025, 187.5)Temperatura (degC), Point: (29.61, 187.5)Temperatura (degC), Point: (29.99, 187.5)Temperatura (degC), Point: (0, 250)Temperatura (degC), Point: (15, 250)Temperatura (degC), Point: (28.051, 250)Temperatura (degC), Point: (29.025, 250)Temperatura (degC), Point: (29.61, 250)Temperatura (degC), Point: (29.99, 250)Temperatura (degC), Point: (0, 312.5)Temperatura (degC), Point: (15, 312.5)Temperatura (degC), Point: (28.051, 312.5)Temperatura (degC), Point: (29.025, 312.5)Temperatura (degC), Point: (29.61, 312.5)Temperatura (degC), Point: (29.99, 312.5)Temperatura (degC), Point: (0, 375)Temperatura (degC), Point: (15, 375)Temperatura (degC), Point: (28.051, 375)Temperatura (degC), Point: (29.025, 375)Temperatura (degC), Point: (29.61, 375)Temperatura (degC), Point: (29.99, 375)Temperatura (degC), Point: (0, 437.5)Temperatura (degC), Point: (15, 437.5)Temperatura (degC), Point: (28.051, 437.5)Temperatura (degC), Point: (29.025, 437.5)Temperatura (degC), Point: (29.61, 437.5)Temperatura (degC), Point: (29.99, 437.5)Temperatura (degC), Point: (0, 468.75)Temperatura (degC), Point: (15, 468.75)Temperatura (degC), Point: (28.051, 468.75)Temperatura (degC), Point: (29.025, 468.75)Temperatura (degC), Point: (29.61, 468.75)Temperatura (degC), Point: (29.99, 468.75)Temperatura (degC), Point: (0, 492.19)Temperatura (degC), Point: (15, 492.19)Temperatura (degC), Point: (28.051, 492.19)Temperatura (degC), Point: (29.025, 492.19)Temperatura (degC), Point: (29.61, 492.19)Temperatura (degC), Point: (29.99, 492.19)
12.000                   2.2500                   1.0000                   10000                    2500.0                   0.0000                   20.000                   20.000                   20.000                   20.000                   20.030                   20.274                   20.000                   20.000                   20.000                   20.000                   20.041                   20.322                   20.000                   20.000                   20.000                   20.000                   20.047                   20.344                   20.000                   20.000                   20.000                   20.000                   20.032                   20.281                   20.000                   20.000                   20.000                   20.000                   20.036                   20.297                   20.000                   20.000                   20.000                   20.000                   20.049                   20.352                   20.000                   20.000                   20.000                   20.000                   20.036                   20.299                   20.000                   20.000                   20.000                   20.000                   20.031                   20.276                   20.000                   20.000                   20.000                   20.000                   20.039                   20.311                   20.000                   20.000                   20.000                   20.000                   20.045                   20.335
12.000                   2.2500                   1.0000                   10000                    2500.0                   5.0000                   23.452                   35.500                   109.66                   120.11                   126.51                   129.19                   24.207                   39.101                   128.58                   141.60                   149.43                   152.60                   24.482                   40.256                   131.81                   144.69                   152.81                   156.30                   23.477                   35.759                   113.60                   125.05                   131.87                   134.67                   23.823                   37.436                   124.60                   137.04                   144.42                   147.64                   24.625                   40.977                   137.32                   151.11                   159.62                   163.12                   23.844                   37.432                   120.94                   133.03                   140.31                   143.32                   23.406                   35.578                   115.59                   127.47                   134.23                   137.02                   23.917                   37.764                   120.22                   131.82                   139.02                   142.05                   26.231                   43.631                   135.63                   147.87                   155.30                   158.41
12.000                   2.2500                   1.0000                   10000                    2500.0                   10.000                   48.258                   80.807                   197.17                   210.51                   218.51                   221.63                   51.611                   88.345                   221.51                   237.85                   247.34                   250.93                   52.224                   89.451                   221.88                   237.92                   247.78                   251.78                   48.114                   80.647                   199.73                   214.41                   223.10                   226.13                   49.970                   85.184                   217.54                   233.43                   243.10                   246.78                   52.875                   91.102                   229.73                   247.10                   257.75                   261.82                   49.327                   83.131                   204.49                   218.97                   227.31                   230.54                   48.036                   80.776                   201.12                   215.49                   223.83                   226.77                   50.063                   84.468                   208.18                   222.89                   231.57                   235.07                   63.055                   102.35                   229.57                   243.62                   251.64                   254.79
12.000                   2.2500                   1.0000                   10000                    2500.0                   15.000                   91.813                   139.01                   282.53                   298.39                   307.64                   311.07                   97.464                   148.57                   307.63                   326.35                   337.25                   341.22                   97.622                   148.37                   304.16                   322.23                   333.23                   337.36                   90.873                   137.52                   282.55                   299.56                   309.56                   312.91                   94.376                   143.95                   301.07                   318.85                   329.16                   332.91                   98.922                   150.99                   313.56                   332.79                   344.35                   348.52                   92.215                   139.11                   282.03                   298.03                   306.85                   310.19                   90.786                   137.43                   280.34                   296.69                   306.40                   309.63                   94.328                   142.17                   289.61                   306.54                   316.46                   320.20                   115.48                   167.31                   310.35                   324.93                   332.88                   336.03
12.000                   2.2500                   1.0000                   10000                    2500.0                   20.000                   145.76                   200.35                   357.99                   375.04                   384.62                   388.26                   152.61                   210.83                   382.69                   402.20                   413.61                   417.68                   151.86                   209.61                   380.30                   399.71                   411.48                   415.64                   143.62                   197.35                   352.70                   369.64                   379.42                   382.86                   148.49                   205.46                   377.45                   396.89                   408.27                   412.21                   153.80                   213.03                   389.47                   409.46                   421.11                   425.30                   144.40                   197.89                   352.27                   368.92                   377.68                   381.08                   143.31                   196.82                   352.00                   369.35                   379.67                   383.24                   147.54                   201.33                   356.03                   373.05                   382.97                   386.66                   172.92                   229.60                   379.46                   394.77                   402.90                   406.03
12.000                   2.2500                   1.0000                   10000                    2500.0                   25.000                   202.65                   261.08                   428.77                   447.30                   458.04                   461.80                   210.18                   272.58                   457.49                   478.86                   491.48                   495.64                   208.77                   271.26                   459.68                   481.84                   495.08                   499.40                   199.46                   257.15                   422.86                   441.19                   451.98                   455.65                   205.29                   266.26                   447.05                   467.65                   479.85                   483.86                   211.19                   275.11                   468.56                   491.24                   504.49                   508.86                   199.74                   257.49                   426.08                   445.06                   455.83                   459.58                   198.66                   255.88                   420.68                   439.16                   450.19                   453.93                   202.91                   260.05                   426.10                   444.94                   456.10                   459.95                   227.20                   286.05                   443.83                   460.73                   470.38                   473.76
12.000                   2.2500                   1.0000                   10000                    2500.0                   30.000                   259.68                   320.91                   500.18                   520.72                   532.94                   536.85                   267.77                   333.69                   534.46                   558.45                   572.55                   576.90                   266.13                   332.84                   540.56                   565.89                   580.82                   585.37                   255.82                   316.70                   496.46                   517.29                   529.68                   533.64                   262.18                   326.03                   516.67                   538.82                   551.86                   555.95                   268.82                   336.82                   549.02                   574.93                   590.14                   594.77                   255.92                   317.50                   503.08                   524.96                   537.92                   542.05                   254.28                   314.32                   490.41                   510.60                   522.61                   526.48                   258.13                   318.31                   499.93                   521.43                   534.24                   538.31                   278.43                   339.13                   506.56                   525.21                   536.39                   540.00
12.000                   2.2500                   1.0000                   10000                    2500.0                   35.000                   314.19                   378.29                   570.35                   593.06                   606.53                   610.63                   322.75                   391.95                   606.72                   633.16                   648.52                   653.09                   321.22                   391.66                   614.53                   642.71                   659.27                   664.08                   310.14                   374.29                   568.38                   591.60                   605.28                   609.47                   316.61                   383.31                   586.09                   610.38                   624.52                   628.79                   323.96                   395.55                   622.69                   651.57                   668.49                   673.39                   310.38                   375.66                   576.31                   600.49                   614.63                   618.99                   307.84                   370.86                   559.94                   582.23                   595.37                   599.44                   311.03                   374.39                   570.07                   593.83                   607.82                   612.07                   327.75                   390.68                   567.24                   587.31                   599.27                   602.95
12.000                   2.2500                   1.0000                   10000                    2500.0                   40.000                   366.29                   433.01                   636.40                   661.24                   675.96                   680.26                   375.09                   446.87                   671.80                   700.65                   717.36                   722.14                   373.82                   447.00                   680.24                   711.38                   729.77                   734.87                   362.42                   429.49                   636.05                   661.54                   676.47                   680.86                   368.64                   437.80                   650.80                   677.17                   692.44                   696.89                   376.46                   450.69                   688.37                   720.51                   739.39                   744.61                   362.88                   431.27                   643.77                   669.94                   685.21                   689.78                   359.43                   425.27                   626.52                   650.91                   665.20                   669.48                   361.80                   428.04                   635.76                   661.71                   676.93                   681.37                   375.58                   440.63                   625.25                   646.81                   659.57                   663.33
12.000                   2.2500                   1.0000                   10000                    2500.0                   45.000                   417.15                   486.08                   698.63                   725.61                   741.53                   746.01                   426.25                   500.35                   736.56                   768.28                   786.32                   791.25                   425.25                   500.91                   746.41                   780.88                   800.98                   806.29                   413.50                   483.12                   700.23                   728.18                   744.38                   748.96                   419.48                   490.78                   713.13                   741.88                   758.31                   762.92                   427.81                   504.46                   755.42                   791.15                   811.80                   817.23                   414.23                   485.35                   708.50                   736.95                   753.34                   758.10                   409.84                   478.12                   689.21                   715.68                   731.10                   735.56                   411.38                   480.13                   698.17                   726.52                   743.01                   747.63                   422.44                   489.27                   679.92                   702.81                   716.33                   720.17
12.000                   2.2500                   1.0000                   10000                    2500.0                   50.000                   463.72                   533.53                   747.71                   776.90                   793.84                   798.42                   473.36                   548.83                   800.16                   836.36                   855.66                   860.60                   472.70                   549.93                   814.22                   853.27                   874.61                   879.86                   460.52                   531.34                   752.47                   783.50                   801.02                   805.70                   466.22                   538.58                   767.27                   799.45                   817.12                   821.80                   475.22                   553.52                   827.18                   867.64                   889.37                   894.67                   461.61                   534.17                   763.89                   795.58                   813.06                   817.93                   456.22                   525.64                   738.57                   767.00                   783.44                   788.02                   456.90                   526.88                   749.31                   780.78                   798.68                   803.46                   465.93                   533.40                   723.04                   746.78                   760.94                   764.83
12.000                   2.2500                   1.0000                   10000                    2500.0                   55.000                   509.49                   579.73                   801.74                   835.07                   853.49                   858.16                   519.71                   596.01                   866.52                   906.31                   927.01                   931.88                   519.41                   597.67                   885.10                   927.33                   948.86                   953.83                   506.74                   578.29                   808.28                   842.75                   861.61                   866.35                   512.20                   585.16                   826.67                   862.96                   882.52                   887.36                   521.88                   601.29                   900.22                   943.30                   964.97                   969.90                   508.22                   581.73                   824.88                   861.39                   881.08                   885.95                   501.81                   571.96                   792.27                   825.24                   843.60                   848.29                   501.63                   572.42                   803.46                   838.52                   857.75                   862.60                   508.71                   576.24                   765.35                   790.59                   805.39                   809.32
12.000                   2.2500                   1.0000                   10000                    2500.0                   60.000                   551.74                   620.91                   859.02                   892.78                   910.72                   915.02                   562.54                   638.05                   922.69                   959.23                   977.68                   981.78                   562.68                   640.64                   945.79                   983.36                   1001.7                   1005.6                   549.52                   620.12                   865.61                   900.17                   918.43                   922.76                   554.76                   626.84                   886.06                   921.85                   940.36                   944.66                   565.13                   644.47                   975.95                   1015.9                   1033.4                   1036.7                   551.39                   624.12                   885.03                   921.08                   939.71                   944.04                   544.09                   613.46                   849.87                   883.93                   902.11                   906.50                   543.04                   613.16                   861.44                   897.48                   916.55                   921.10                   548.23                   613.97                   807.54                   834.27                   849.15                   852.93
12.000                   2.2500                   1.0000                   10000                    2500.0                   65.000                   590.67                   658.13                   904.43                   935.38                   951.39                   955.04                   601.82                   675.34                   948.78                   977.84                   992.34                   995.44                   602.56                   679.53                   975.20                   1001.5                   1013.4                   1015.6                   588.94                   657.75                   909.48                   940.68                   956.74                   960.39                   593.95                   664.23                   925.55                   956.57                   972.37                   975.89                   605.00                   684.18                   1053.6                   1084.2                   1092.7                   1092.9                   591.13                   662.03                   924.50                   955.68                   971.58                   975.12                   583.25                   651.10                   897.14                   928.87                   945.34                   949.13                   581.46                   650.45                   913.95                   948.54                   966.23                   970.22                   584.70                   648.19                   848.93                   875.39                   889.81                   893.32
12.000                   2.2500                   1.0000                   10000                    2500.0                   70.000                   625.90                   691.04                   941.29                   969.04                   983.17                   986.23                   637.11                   707.52                   967.59                   991.47                   1003.2                   1005.5                   638.56                   713.69                   1006.1                   1027.7                   1035.9                   1036.9                   624.58                   690.92                   944.63                   972.46                   986.58                   989.62                   629.31                   696.89                   955.08                   982.18                   995.78                   998.64                   641.05                   719.49                   1079.1                   1099.3                   1103.9                   1103.2                   626.97                   695.11                   953.49                   980.64                   994.28                   997.17                   618.88                   684.68                   936.09                   964.79                   979.44                   982.65                   616.61                   684.29                   960.05                   992.08                   1007.7                   1010.9                   617.96                   679.10                   887.89                   913.26                   926.80                   929.94
12.000                   2.2500                   1.0000                   10000                    2500.0                   75.000                   657.28                   719.49                   968.34                   992.51                   1004.5                   1006.9                   668.26                   735.43                   984.00                   1003.7                   1013.0                   1014.6                   670.42                   743.99                   1033.9                   1052.5                   1058.4                   1058.4                   656.28                   719.63                   970.88                   995.19                   1007.2                   1009.5                   660.68                   724.96                   976.94                   1000.4                   1011.8                   1014.0                   672.95                   751.28                   1083.7                   1098.3                   1101.3                   1100.3                   658.75                   723.50                   975.02                   998.48                   1009.9                   1012.2                   650.83                   713.98                   964.45                   989.48                   1002.0                   1004.5                   648.41                   714.49                   998.59                   1026.5                   1038.2                   1040.0                   648.02                   706.52                   918.72                   941.38                   953.28                   955.92