% Model:              batchmodel_COIL_N_12_COIL_kr_2.25_COIL_kh_2_FUNZ_freq_10000_FUNZ_I_eff_4000.mph
% Version:            COMSOL 6.0.0.318
% Date:               Feb 8 2022, 20:10
% Table:              Tabella 1 - GRIGLIA_T
% COIL_N                 COIL_kr                  COIL_kh                  FUNZ_freq                FUNZ_I_eff               Time (s)                 Temperatura (degC), Point: (0, 0)Temperatura (degC), Point: (15, 0)Temperatura (degC), Point: (28.051, 0)Temperatura (degC), Point: (29.025, 0)Temperatura (degC), Point: (29.61, 0)Temperatura (degC), Point: (29.99, 0)Temperatura (degC), Point: (0, 62.5)Temperatura (degC), Point: (15, 62.5)Temperatura (degC), Point: (28.051, 62.5)Temperatura (degC), Point: (29.025, 62.5)Temperatura (degC), Point: (29.61, 62.5)Temperatura (degC), Point: (29.99, 62.5)Temperatura (degC), Point: (0, 125)Temperatura (degC), Point: (15, 125)Temperatura (degC), Point: (28.051, 125)Temperatura (degC), Point: (29.025, 125)Temperatura (degC), Point: (29.61, 125)Temperatura (degC), Point: (29.99, 125)Temperatura (degC), Point: (0, 187.5)Temperatura (degC), Point: (15, 187.5)Temperatura (degC), Point: (28.051, 187.5)Temperatura (degC), Point: (29.025, 187.5)Temperatura (degC), Point: (29.61, 187.5)Temperatura (degC), Point: (29.99, 187.5)Temperatura (degC), Point: (0, 250)Temperatura (degC), Point: (15, 250)Temperatura (degC), Point: (28.051, 250)Temperatura (degC), Point: (29.025, 250)Temperatura (degC), Point: (29.61, 250)Temperatura (degC), Point: (29.99, 250)Temperatura (degC), Point: (0, 312.5)Temperatura (degC), Point: (15, 312.5)Temperatura (degC), Point: (28.051, 312.5)Temperatura (degC), Point: (29.025, 312.5)Temperatura (degC), Point: (29.61, 312.5)Temperatura (degC), Point: (29.99, 312.5)Temperatura (degC), Point: (0, 375)Temperatura (degC), Point: (15, 375)Temperatura (degC), Point: (28.051, 375)Temperatura (degC), Point: (29.025, 375)Temperatura (degC), Point: (29.61, 375)Temperatura (degC), Point: (29.99, 375)Temperatura (degC), Point: (0, 437.5)Temperatura (degC), Point: (15, 437.5)Temperatura (degC), Point: (28.051, 437.5)Temperatura (degC), Point: (29.025, 437.5)Temperatura (degC), Point: (29.61, 437.5)Temperatura (degC), Point: (29.99, 437.5)Temperatura (degC), Point: (0, 468.75)Temperatura (degC), Point: (15, 468.75)Temperatura (degC), Point: (28.051, 468.75)Temperatura (degC), Point: (29.025, 468.75)Temperatura (degC), Point: (29.61, 468.75)Temperatura (degC), Point: (29.99, 468.75)Temperatura (degC), Point: (0, 492.19)Temperatura (degC), Point: (15, 492.19)Temperatura (degC), Point: (28.051, 492.19)Temperatura (degC), Point: (29.025, 492.19)Temperatura (degC), Point: (29.61, 492.19)Temperatura (degC), Point: (29.99, 492.19)
12.000                   2.2500                   2.0000                   10000                    4000.0                   0.0000                   20.000                   20.000                   20.000                   20.000                   20.106                   20.511                   20.000                   20.000                   20.000                   20.000                   20.126                   20.568                   20.000                   20.000                   20.000                   20.000                   20.139                   20.600                   20.000                   20.000                   20.000                   20.000                   20.114                   20.530                   20.000                   20.000                   20.000                   20.000                   20.113                   20.526                   20.000                   20.000                   20.000                   20.000                   20.138                   20.598                   20.000                   20.000                   20.000                   20.000                   20.128                   20.571                   20.000                   20.000                   20.000                   20.000                   20.105                   20.509                   20.000                   20.000                   20.000                   20.000                   20.134                   20.587                   20.000                   20.000                   20.000                   20.000                   20.123                   20.561
12.000                   2.2500                   2.0000                   10000                    4000.0                   5.0000                   28.231                   61.396                   257.88                   286.79                   304.70                   310.76                   28.686                   64.513                   282.01                   314.97                   335.15                   341.80                   29.098                   66.768                   297.34                   332.66                   354.14                   361.12                   28.425                   62.998                   270.07                   300.78                   319.56                   325.82                   28.363                   62.536                   266.21                   296.53                   315.29                   321.51                   28.991                   66.259                   296.53                   331.96                   353.53                   360.50                   28.693                   64.562                   283.36                   316.55                   336.80                   343.50                   28.350                   62.471                   262.51                   291.63                   309.57                   315.67                   29.043                   66.058                   290.51                   324.61                   345.38                   352.13                   35.757                   74.416                   278.89                   307.79                   325.47                   331.34
12.000                   2.2500                   2.0000                   10000                    4000.0                   10.000                   86.051                   163.20                   463.63                   506.56                   531.17                   538.44                   89.384                   171.73                   501.88                   550.86                   578.96                   586.89                   91.590                   176.74                   519.72                   570.54                   599.12                   607.25                   87.620                   167.17                   479.30                   524.18                   549.67                   557.06                   87.364                   166.45                   476.04                   520.15                   544.40                   551.71                   91.442                   176.54                   519.32                   569.54                   597.69                   605.80                   89.580                   172.14                   500.57                   548.24                   575.42                   583.21                   87.023                   165.23                   467.14                   509.84                   534.26                   541.32                   90.791                   173.39                   503.38                   552.10                   579.38                   587.13                   100.45                   180.92                   463.61                   501.39                   523.34                   529.96
12.000                   2.2500                   2.0000                   10000                    4000.0                   15.000                   176.39                   279.14                   660.36                   716.68                   748.35                   757.04                   182.40                   290.28                   695.50                   760.08                   796.21                   805.62                   185.79                   295.81                   709.76                   777.89                   814.80                   824.39                   179.10                   283.83                   671.69                   729.32                   762.23                   771.20                   178.68                   282.86                   666.33                   723.06                   755.15                   764.07                   185.77                   295.76                   709.28                   775.82                   812.56                   822.27                   182.74                   290.56                   693.11                   755.45                   790.63                   800.07                   177.77                   281.08                   663.81                   721.04                   752.97                   761.57                   183.32                   289.79                   687.35                   749.20                   784.11                   793.41                   193.03                   293.55                   628.33                   673.82                   699.19                   706.25
12.000                   2.2500                   2.0000                   10000                    4000.0                   20.000                   276.40                   391.89                   814.57                   885.80                   921.16                   929.50                   283.64                   403.99                   872.21                   949.24                   984.83                   992.77                   287.23                   409.75                   920.37                   1004.8                   1040.0                   1046.9                   279.40                   396.47                   833.78                   907.59                   943.28                   951.54                   278.86                   395.39                   828.25                   901.45                   937.12                   945.42                   287.27                   409.71                   904.98                   981.12                   1014.5                   1021.5                   283.94                   404.23                   871.24                   947.53                   982.81                   990.69                   277.59                   393.31                   818.74                   890.93                   926.59                   934.96                   282.79                   400.86                   867.89                   949.50                   987.24                   995.66                   288.41                   399.30                   749.46                   800.91                   829.43                   836.69
12.000                   2.2500                   2.0000                   10000                    4000.0                   25.000                   370.73                   489.27                   923.28                   981.00                   1007.7                   1013.4                   378.67                   501.73                   945.13                   996.58                   1019.3                   1024.0                   382.84                   512.25                   1068.2                   1107.2                   1116.9                   1117.2                   373.76                   493.93                   958.85                   1019.9                   1044.4                   1048.9                   373.13                   492.84                   944.71                   1003.5                   1028.9                   1034.0                   382.83                   511.50                   1024.4                   1067.2                   1080.0                   1081.2                   378.97                   501.97                   932.63                   982.35                   1005.3                   1010.2                   371.59                   490.27                   923.85                   981.42                   1008.1                   1013.9                   376.20                   500.72                   1106.9                   1147.7                   1157.2                   1157.2                   377.66                   489.09                   831.41                   878.18                   902.23                   907.99
12.000                   2.2500                   2.0000                   10000                    4000.0                   30.000                   453.32                   568.14                   928.62                   963.39                   980.25                   983.93                   461.80                   581.30                   977.94                   1009.7                   1022.2                   1024.2                   467.32                   595.82                   1083.9                   1109.1                   1115.0                   1114.5                   456.42                   575.00                   1065.5                   1100.6                   1109.6                   1109.7                   455.76                   573.60                   1021.4                   1059.1                   1070.6                   1071.6                   467.12                   594.10                   1053.6                   1081.9                   1089.7                   1089.8                   462.11                   581.02                   946.78                   975.92                   989.42                   992.24                   453.81                   568.68                   953.69                   994.45                   1013.5                   1017.4                   459.24                   586.34                   1126.1                   1148.2                   1152.6                   1151.6                   455.36                   561.89                   890.82                   932.08                   952.79                   957.52
12.000                   2.2500                   2.0000                   10000                    4000.0                   35.000                   521.60                   627.79                   942.84                   969.74                   982.95                   985.76                   530.85                   643.02                   1016.5                   1041.9                   1050.4                   1051.1                   537.14                   657.49                   1092.6                   1111.5                   1115.6                   1114.8                   525.17                   638.02                   1085.4                   1109.4                   1115.0                   1114.5                   524.44                   636.11                   1056.3                   1083.1                   1090.3                   1090.2                   536.76                   655.39                   1073.2                   1094.5                   1099.8                   1099.3                   531.11                   642.19                   982.93                   1005.9                   1015.5                   1017.1                   521.74                   628.28                   970.81                   1002.1                   1016.6                   1019.4                   528.97                   651.44                   1117.9                   1133.8                   1136.6                   1135.4                   520.02                   619.32                   932.20                   966.53                   983.66                   987.40
12.000                   2.2500                   2.0000                   10000                    4000.0                   40.000                   580.65                   677.14                   961.92                   983.05                   993.24                   995.24                   590.41                   694.25                   1049.9                   1069.1                   1074.3                   1074.0                   596.74                   707.33                   1093.4                   1107.9                   1110.7                   1109.7                   584.65                   689.60                   1088.5                   1106.7                   1110.6                   1109.8                   583.85                   687.40                   1071.3                   1091.6                   1096.5                   1096.0                   596.25                   705.24                   1082.6                   1098.5                   1101.9                   1101.0                   590.61                   693.21                   1026.5                   1045.9                   1052.2                   1052.3                   580.52                   677.54                   984.49                   1008.1                   1018.7                   1020.5                   589.30                   704.21                   1109.1                   1121.3                   1123.2                   1121.9                   576.64                   668.19                   961.13                   987.83                   1000.9                   1003.6
12.000                   2.2500                   2.0000                   10000                    4000.0                   45.000                   631.47                   718.72                   984.10                   1000.8                   1008.3                   1009.5                   641.41                   738.46                   1073.7                   1087.6                   1090.5                   1089.5                   647.37                   750.42                   1093.8                   1105.0                   1106.9                   1105.6                   635.72                   733.02                   1088.1                   1102.4                   1105.2                   1104.2                   634.88                   730.49                   1078.5                   1094.1                   1097.6                   1096.7                   646.85                   748.48                   1088.9                   1100.7                   1102.7                   1101.6                   641.57                   737.30                   1062.7                   1078.0                   1081.5                   1080.7                   631.14                   719.09                   1001.4                   1019.7                   1027.1                   1028.0                   641.00                   749.37                   1104.3                   1114.0                   1115.3                   1113.8                   626.14                   710.94                   1003.0                   1023.5                   1031.8                   1032.9
12.000                   2.2500                   2.0000                   10000                    4000.0                   50.000                   670.54                   753.56                   1011.7                   1025.7                   1031.0                   1031.3                   680.10                   777.16                   1086.0                   1096.3                   1098.0                   1096.7                   685.32                   788.88                   1098.2                   1107.1                   1108.2                   1106.8                   674.72                   769.27                   1087.7                   1099.2                   1101.3                   1100.1                   673.90                   766.42                   1081.4                   1093.9                   1096.3                   1095.3                   684.85                   787.17                   1095.7                   1104.9                   1106.1                   1104.7                   680.24                   776.13                   1081.4                   1092.2                   1094.1                   1092.9                   670.15                   753.82                   1024.1                   1039.3                   1044.5                   1044.6                   680.17                   788.17                   1104.4                   1112.4                   1113.2                   1111.7                   665.57                   749.84                   1055.6                   1071.1                   1075.1                   1074.6
12.000                   2.2500                   2.0000                   10000                    4000.0                   55.000                   701.43                   786.93                   1043.2                   1055.5                   1059.0                   1058.4                   710.10                   814.56                   1094.4                   1102.3                   1103.1                   1101.7                   714.36                   826.09                   1103.6                   1110.7                   1111.2                   1109.7                   705.25                   803.30                   1086.9                   1096.2                   1097.6                   1096.3                   704.50                   800.34                   1082.5                   1092.4                   1094.1                   1092.8                   713.98                   824.70                   1102.3                   1109.5                   1110.1                   1108.5                   710.23                   814.05                   1093.0                   1101.1                   1102.0                   1100.6                   701.05                   786.77                   1048.4                   1060.9                   1064.2                   1063.6                   710.49                   824.32                   1106.0                   1112.7                   1113.1                   1111.5                   698.01                   789.61                   1093.5                   1103.0                   1104.4                   1103.0
12.000                   2.2500                   2.0000                   10000                    4000.0                   60.000                   723.44                   822.05                   1063.4                   1073.2                   1075.2                   1074.2                   732.26                   850.48                   1101.1                   1107.4                   1107.7                   1106.1                   736.67                   861.72                   1110.1                   1115.6                   1115.7                   1114.0                   727.12                   837.04                   1090.0                   1097.5                   1098.3                   1096.9                   726.37                   834.28                   1086.8                   1094.6                   1095.6                   1094.3                   736.29                   860.60                   1109.2                   1114.8                   1114.9                   1113.2                   732.44                   850.48                   1100.9                   1107.2                   1107.5                   1106.0                   722.99                   821.57                   1065.2                   1074.9                   1076.9                   1075.8                   732.87                   858.24                   1109.7                   1115.1                   1115.2                   1113.5                   722.01                   834.99                   1116.0                   1122.3                   1122.4                   1120.7
12.000                   2.2500                   2.0000                   10000                    4000.0                   65.000                   745.15                   856.76                   1079.0                   1086.4                   1087.3                   1085.9                   756.28                   884.92                   1107.7                   1112.5                   1112.3                   1110.6                   762.10                   895.99                   1116.7                   1120.9                   1120.5                   1118.7                   749.45                   870.05                   1094.5                   1100.4                   1100.7                   1099.2                   748.55                   867.55                   1092.1                   1098.3                   1098.7                   1097.1                   761.62                   895.07                   1116.0                   1120.3                   1119.9                   1118.2                   756.60                   885.35                   1108.1                   1112.9                   1112.7                   1111.0                   744.59                   856.03                   1078.7                   1086.1                   1087.0                   1085.7                   757.14                   890.95                   1114.1                   1118.5                   1118.1                   1116.4                   747.27                   880.53                   1134.5                   1138.4                   1137.7                   1135.8
12.000                   2.2500                   2.0000                   10000                    4000.0                   70.000                   767.57                   890.77                   1090.3                   1095.6                   1095.7                   1094.2                   783.25                   917.77                   1114.0                   1117.6                   1117.0                   1115.2                   791.74                   928.79                   1123.3                   1126.5                   1125.7                   1123.8                   773.30                   902.21                   1100.3                   1104.8                   1104.6                   1102.9                   772.08                   900.02                   1098.5                   1103.1                   1103.0                   1101.3                   791.07                   927.98                   1122.8                   1125.9                   1125.2                   1123.3                   783.79                   918.52                   1114.8                   1118.4                   1117.8                   1116.0                   766.90                   889.87                   1089.3                   1094.7                   1094.9                   1093.3                   784.41                   922.45                   1119.3                   1122.7                   1122.0                   1120.1                   775.04                   925.62                   1149.8                   1152.0                   1150.8                   1148.7
12.000                   2.2500                   2.0000                   10000                    4000.0                   75.000                   806.50                   920.22                   1097.7                   1101.8                   1101.5                   1099.8                   823.89                   945.46                   1120.4                   1123.1                   1122.3                   1120.4                   832.80                   956.26                   1130.0                   1132.4                   1131.4                   1129.4                   812.87                   930.48                   1106.8                   1110.3                   1109.7                   1108.0                   811.56                   928.52                   1105.2                   1108.7                   1108.2                   1106.5                   832.10                   955.48                   1129.5                   1131.9                   1130.8                   1128.9                   824.52                   946.27                   1121.3                   1124.0                   1123.1                   1121.2                   805.78                   919.32                   1096.8                   1100.9                   1100.7                   1099.0                   825.99                   950.51                   1126.0                   1128.5                   1127.5                   1125.6                   824.06                   963.07                   1162.6                   1164.0                   1162.5                   1160.4