% Model:              batchmodel_COIL_N_12_COIL_kr_1.5_COIL_kh_1.5_FUNZ_freq_2000_FUNZ_I_eff_4000.mph
% Version:            COMSOL 6.0.0.318
% Date:               Feb 8 2022, 18:24
% Table:              Tabella 1 - GRIGLIA_T
% COIL_N                 COIL_kr                  COIL_kh                  FUNZ_freq                FUNZ_I_eff               Time (s)                 Temperatura (degC), Point: (0, 0)Temperatura (degC), Point: (15, 0)Temperatura (degC), Point: (25.641, 0)Temperatura (degC), Point: (27.821, 0)Temperatura (degC), Point: (29.128, 0)Temperatura (degC), Point: (29.99, 0)Temperatura (degC), Point: (0, 62.5)Temperatura (degC), Point: (15, 62.5)Temperatura (degC), Point: (25.641, 62.5)Temperatura (degC), Point: (27.821, 62.5)Temperatura (degC), Point: (29.128, 62.5)Temperatura (degC), Point: (29.99, 62.5)Temperatura (degC), Point: (0, 125)Temperatura (degC), Point: (15, 125)Temperatura (degC), Point: (25.641, 125)Temperatura (degC), Point: (27.821, 125)Temperatura (degC), Point: (29.128, 125)Temperatura (degC), Point: (29.99, 125)Temperatura (degC), Point: (0, 187.5)Temperatura (degC), Point: (15, 187.5)Temperatura (degC), Point: (25.641, 187.5)Temperatura (degC), Point: (27.821, 187.5)Temperatura (degC), Point: (29.128, 187.5)Temperatura (degC), Point: (29.99, 187.5)Temperatura (degC), Point: (0, 250)Temperatura (degC), Point: (15, 250)Temperatura (degC), Point: (25.641, 250)Temperatura (degC), Point: (27.821, 250)Temperatura (degC), Point: (29.128, 250)Temperatura (degC), Point: (29.99, 250)Temperatura (degC), Point: (0, 312.5)Temperatura (degC), Point: (15, 312.5)Temperatura (degC), Point: (25.641, 312.5)Temperatura (degC), Point: (27.821, 312.5)Temperatura (degC), Point: (29.128, 312.5)Temperatura (degC), Point: (29.99, 312.5)Temperatura (degC), Point: (0, 375)Temperatura (degC), Point: (15, 375)Temperatura (degC), Point: (25.641, 375)Temperatura (degC), Point: (27.821, 375)Temperatura (degC), Point: (29.128, 375)Temperatura (degC), Point: (29.99, 375)Temperatura (degC), Point: (0, 437.5)Temperatura (degC), Point: (15, 437.5)Temperatura (degC), Point: (25.641, 437.5)Temperatura (degC), Point: (27.821, 437.5)Temperatura (degC), Point: (29.128, 437.5)Temperatura (degC), Point: (29.99, 437.5)Temperatura (degC), Point: (0, 468.75)Temperatura (degC), Point: (15, 468.75)Temperatura (degC), Point: (25.641, 468.75)Temperatura (degC), Point: (27.821, 468.75)Temperatura (degC), Point: (29.128, 468.75)Temperatura (degC), Point: (29.99, 468.75)Temperatura (degC), Point: (0, 492.19)Temperatura (degC), Point: (15, 492.19)Temperatura (degC), Point: (25.641, 492.19)Temperatura (degC), Point: (27.821, 492.19)Temperatura (degC), Point: (29.128, 492.19)Temperatura (degC), Point: (29.99, 492.19)
12.000                   1.5000                   1.5000                   2000.0                   4000.0                   0.0000                   20.000                   20.000                   20.000                   20.000                   20.011                   20.093                   20.000                   20.000                   20.000                   20.000                   20.026                   20.137                   20.000                   20.000                   20.000                   20.000                   20.037                   20.167                   20.000                   20.000                   20.000                   20.000                   20.014                   20.101                   20.000                   20.000                   20.000                   20.000                   20.016                   20.107                   20.000                   20.000                   20.000                   20.000                   20.039                   20.171                   20.000                   20.000                   20.000                   20.000                   20.022                   20.127                   20.000                   20.000                   20.000                   20.000                   20.010                   20.093                   20.000                   20.000                   20.000                   20.000                   20.028                   20.144                   20.000                   20.000                   20.000                   20.000                   20.031                   20.152
12.000                   1.5000                   1.5000                   2000.0                   4000.0                   5.0000                   22.076                   29.948                   65.428                   79.335                   88.908                   92.912                   23.667                   37.309                   94.829                   116.87                   131.81                   137.51                   24.538                   41.626                   112.88                   140.40                   158.93                   165.64                   22.302                   31.073                   70.635                   86.030                   96.572                   100.90                   22.562                   32.169                   74.925                   91.442                   102.71                   107.27                   24.738                   42.497                   116.09                   144.47                   163.52                   170.39                   23.299                   35.594                   88.102                   108.24                   121.90                   127.21                   22.132                   30.188                   66.032                   79.870                   89.354                   93.328                   23.696                   37.747                   97.397                   120.47                   136.12                   142.03                   23.661                   39.776                   102.75                   126.39                   142.31                   148.28
12.000                   1.5000                   1.5000                   2000.0                   4000.0                   10.000                   38.401                   62.001                   120.08                   137.63                   148.94                   153.35                   46.209                   79.962                   164.27                   190.73                   207.72                   213.75                   50.317                   89.829                   190.30                   222.72                   243.35                   250.34                   39.798                   65.438                   128.74                   147.96                   160.37                   165.10                   41.149                   68.538                   136.90                   157.39                   170.47                   175.40                   51.111                   91.534                   194.33                   227.47                   248.55                   255.68                   44.531                   76.104                   154.48                   178.84                   194.46                   200.12                   38.405                   61.877                   119.45                   136.83                   148.05                   152.42                   46.245                   80.556                   167.19                   194.67                   212.28                   218.49                   50.382                   88.366                   177.96                   205.41                   222.79                   228.88
12.000                   1.5000                   1.5000                   2000.0                   4000.0                   15.000                   71.247                   105.32                   176.30                   196.69                   209.50                   214.22                   86.250                   131.11                   229.35                   258.97                   277.64                   283.94                   94.080                   145.18                   260.38                   296.48                   318.88                   326.10                   74.156                   110.49                   187.13                   208.97                   222.81                   227.83                   76.846                   115.20                   197.24                   221.22                   236.08                   241.39                   95.358                   147.25                   264.51                   301.34                   324.24                   331.57                   83.058                   125.51                   217.03                   244.50                   261.82                   267.75                   70.842                   104.46                   174.99                   195.35                   207.93                   212.62                   86.168                   131.50                   231.87                   262.64                   282.04                   288.52                   95.490                   144.18                   245.33                   275.18                   293.74                   299.93
12.000                   1.5000                   1.5000                   2000.0                   4000.0                   20.000                   114.50                   153.91                   234.44                   257.45                   271.89                   276.94                   134.51                   184.77                   293.69                   326.75                   347.15                   353.71                   145.08                   201.70                   328.37                   368.06                   392.15                   399.57                   118.49                   160.17                   246.38                   271.33                   286.95                   292.31                   122.20                   165.96                   257.29                   283.79                   300.28                   305.85                   146.56                   203.93                   332.98                   373.65                   398.27                   405.82                   130.11                   177.82                   280.00                   310.64                   329.63                   335.85                   113.40                   152.24                   231.88                   254.64                   268.95                   273.96                   134.13                   184.66                   295.46                   329.37                   350.30                   357.00                   147.55                   200.69                   310.09                   342.32                   362.06                   368.37
12.000                   1.5000                   1.5000                   2000.0                   4000.0                   25.000                   162.02                   205.20                   294.19                   320.10                   336.22                   341.59                   185.33                   239.63                   358.70                   395.29                   417.42                   424.21                   197.75                   258.39                   395.76                   439.20                   464.88                   472.43                   166.75                   212.32                   307.40                   335.38                   352.68                   358.33                   171.09                   218.60                   318.16                   347.55                   365.66                   371.51                   199.29                   260.78                   400.85                   445.35                   471.55                   479.22                   180.01                   231.76                   343.87                   377.87                   398.57                   405.03                   160.23                   202.87                   290.78                   316.37                   332.30                   337.63                   184.46                   238.77                   359.14                   396.46                   419.03                   425.95                   200.66                   256.75                   373.50                   408.19                   429.04                   435.43
12.000                   1.5000                   1.5000                   2000.0                   4000.0                   30.000                   211.39                   257.99                   356.21                   385.39                   403.29                   408.96                   236.86                   294.99                   424.49                   464.66                   488.33                   495.27                   250.37                   314.93                   463.24                   510.50                   537.77                   545.47                   216.65                   265.75                   370.35                   401.66                   420.71                   426.64                   221.31                   272.25                   381.35                   414.24                   434.12                   440.20                   251.96                   317.44                   468.63                   516.99                   544.81                   552.63                   230.90                   286.46                   408.78                   446.33                   468.63                   475.28                   209.05                   255.15                   352.25                   381.03                   398.69                   404.32                   235.32                   293.19                   423.51                   464.30                   488.36                   495.40                   253.10                   312.01                   435.95                   472.97                   494.72                   501.10
12.000                   1.5000                   1.5000                   2000.0                   4000.0                   35.000                   261.90                   311.84                   419.58                   452.04                   471.60                   477.46                   288.69                   350.58                   490.87                   534.91                   560.25                   567.33                   302.78                   371.18                   530.59                   581.87                   610.72                   618.54                   267.52                   320.08                   434.51                   469.20                   489.90                   496.03                   272.29                   326.64                   445.98                   482.68                   504.35                   510.59                   304.39                   373.78                   536.09                   588.45                   617.86                   625.78                   282.32                   341.60                   474.40                   515.72                   539.69                   546.49                   259.09                   308.57                   415.10                   447.02                   466.23                   472.09                   286.35                   347.71                   488.31                   532.84                   558.47                   565.63                   304.74                   366.36                   497.46                   537.02                   559.74                   566.11
12.000                   1.5000                   1.5000                   2000.0                   4000.0                   40.000                   311.92                   365.26                   482.52                   518.34                   539.50                   545.53                   339.41                   404.70                   554.34                   601.93                   628.76                   635.94                   353.74                   425.45                   593.82                   648.88                   679.52                   687.48                   317.77                   373.76                   497.81                   535.97                   558.28                   564.58                   322.55                   380.27                   509.39                   549.78                   573.13                   579.52                   355.36                   428.08                   599.35                   655.63                   686.95                   695.03                   332.80                   395.53                   537.83                   582.78                   608.30                   615.20                   308.74                   361.61                   477.56                   512.74                   533.48                   539.52                   336.28                   400.86                   550.53                   598.55                   625.61                   632.86                   354.71                   418.78                   556.15                   598.12                   621.78                   628.13
12.000                   1.5000                   1.5000                   2000.0                   4000.0                   45.000                   360.95                   417.79                   544.48                   583.72                   606.44                   612.63                   388.57                   456.85                   613.89                   664.52                   692.59                   699.82                   402.88                   477.22                   651.75                   710.22                   742.93                   751.10                   366.89                   426.31                   559.63                   601.32                   625.21                   631.65                   371.60                   432.66                   570.76                   614.57                   639.45                   645.99                   404.48                   479.80                   657.27                   717.34                   751.00                   759.31                   381.89                   447.76                   598.23                   646.53                   673.44                   680.41                   357.47                   413.81                   539.08                   577.62                   599.93                   606.12                   384.71                   452.20                   609.30                   660.40                   688.71                   696.01                   402.74                   468.96                   611.46                   655.64                   680.21                   686.53
12.000                   1.5000                   1.5000                   2000.0                   4000.0                   50.000                   409.13                   469.43                   605.09                   647.67                   671.85                   678.18                   436.33                   507.16                   670.09                   723.62                   752.81                   760.04                   450.34                   526.72                   705.76                   767.68                   802.65                   811.04                   415.03                   477.76                   619.69                   664.88                   690.30                   696.85                   419.59                   483.87                   630.01                   677.02                   703.29                   709.98                   451.90                   529.19                   711.31                   775.36                   811.62                   820.19                   429.72                   498.37                   655.83                   707.41                   735.63                   742.63                   405.41                   465.17                   599.30                   641.17                   665.00                   671.28                   431.78                   501.81                   665.01                   719.09                   748.58                   755.89                   448.92                   516.93                   663.49                   709.80                   735.29                   741.58
12.000                   1.5000                   1.5000                   2000.0                   4000.0                   55.000                   455.09                   517.35                   655.89                   699.78                   724.72                   731.00                   481.99                   554.36                   724.59                   784.46                   815.91                   823.15                   495.79                   573.67                   767.12                   837.26                   873.85                   881.88                   460.97                   525.54                   670.51                   717.73                   744.38                   750.93                   465.40                   531.45                   680.85                   730.54                   758.27                   764.99                   497.32                   576.14                   773.95                   846.33                   884.00                   892.14                   475.42                   545.69                   708.53                   765.23                   795.47                   802.51                   451.16                   512.92                   650.05                   693.15                   717.66                   723.86                   476.69                   548.21                   717.67                   777.72                   809.43                   816.79                   492.81                   561.40                   710.01                   759.68                   786.58                   792.83
12.000                   1.5000                   1.5000                   2000.0                   4000.0                   60.000                   499.49                   562.90                   700.97                   745.08                   770.37                   776.50                   525.88                   599.07                   776.59                   844.53                   878.74                   885.97                   539.38                   618.21                   830.37                   911.21                   949.19                   956.57                   505.29                   570.90                   715.72                   764.21                   791.89                   798.37                   509.57                   576.59                   726.33                   778.32                   807.47                   814.15                   540.89                   620.69                   839.15                   922.20                   960.79                   968.16                   519.41                   590.54                   757.33                   820.09                   852.66                   859.74                   495.40                   558.40                   695.31                   738.51                   763.24                   769.24                   519.84                   592.12                   767.28                   834.80                   869.22                   876.63                   534.63                   603.00                   752.09                   805.74                   834.29                   840.51
12.000                   1.5000                   1.5000                   2000.0                   4000.0                   65.000                   541.01                   603.86                   738.00                   780.95                   805.31                   810.95                   567.11                   639.99                   821.48                   890.00                   923.34                   929.88                   580.72                   661.30                   901.57                   982.69                   1016.5                   1021.9                   546.74                   611.69                   753.23                   800.79                   827.62                   833.59                   550.89                   617.22                   764.32                   815.60                   843.92                   850.06                   582.29                   664.51                   917.23                   998.87                   1032.4                   1037.5                   560.66                   631.25                   798.80                   861.66                   893.46                   899.95                   536.85                   599.41                   732.72                   774.95                   798.86                   804.40                   560.11                   631.82                   810.29                   879.59                   913.88                   920.78                   573.41                   640.33                   788.64                   842.55                   870.62                   876.37
12.000                   1.5000                   1.5000                   2000.0                   4000.0                   70.000                   579.35                   639.65                   766.38                   806.73                   828.68                   833.43                   605.44                   676.78                   858.13                   917.50                   945.33                   950.30                   619.69                   703.18                   982.20                   1050.0                   1072.8                   1074.6                   585.00                   647.39                   782.52                   826.63                   850.31                   855.25                   589.06                   652.85                   794.32                   841.20                   865.91                   870.93                   621.43                   708.02                   1010.7                   1075.4                   1096.4                   1097.6                   598.91                   667.42                   832.07                   887.42                   914.50                   919.61                   575.21                   635.41                   761.72                   801.90                   823.82                   828.57                   597.25                   666.88                   845.83                   909.45                   939.96                   945.66                   608.94                   673.06                   819.38                   868.79                   893.67                   898.41
12.000                   1.5000                   1.5000                   2000.0                   4000.0                   75.000                   614.49                   670.86                   788.34                   825.11                   843.97                   847.67                   640.77                   710.18                   889.11                   935.38                   955.88                   958.97                   655.91                   745.14                   1059.9                   1108.5                   1118.1                   1116.0                   620.09                   678.55                   805.49                   844.73                   864.32                   868.03                   624.07                   684.02                   818.07                   858.74                   878.73                   882.41                   657.87                   752.46                   1101.3                   1143.0                   1149.5                   1146.5                   634.12                   699.64                   859.30                   903.92                   924.72                   928.17                   610.48                   666.97                   784.60                   821.92                   841.26                   845.11                   631.24                   697.79                   875.40                   930.23                   955.55                   959.82                   641.20                   701.64                   845.26                   888.15                   908.79                   912.34