% Model:              batchmodel_COIL_N_12_COIL_kr_2.25_COIL_kh_1.5_FUNZ_freq_10000_FUNZ_I_eff_2500.mph
% Version:            COMSOL 6.0.0.318
% Date:               Feb 8 2022, 19:29
% Table:              Tabella 1 - GRIGLIA_T
% COIL_N                 COIL_kr                  COIL_kh                  FUNZ_freq                FUNZ_I_eff               Time (s)                 Temperatura (degC), Point: (0, 0)Temperatura (degC), Point: (15, 0)Temperatura (degC), Point: (28.051, 0)Temperatura (degC), Point: (29.025, 0)Temperatura (degC), Point: (29.61, 0)Temperatura (degC), Point: (29.99, 0)Temperatura (degC), Point: (0, 62.5)Temperatura (degC), Point: (15, 62.5)Temperatura (degC), Point: (28.051, 62.5)Temperatura (degC), Point: (29.025, 62.5)Temperatura (degC), Point: (29.61, 62.5)Temperatura (degC), Point: (29.99, 62.5)Temperatura (degC), Point: (0, 125)Temperatura (degC), Point: (15, 125)Temperatura (degC), Point: (28.051, 125)Temperatura (degC), Point: (29.025, 125)Temperatura (degC), Point: (29.61, 125)Temperatura (degC), Point: (29.99, 125)Temperatura (degC), Point: (0, 187.5)Temperatura (degC), Point: (15, 187.5)Temperatura (degC), Point: (28.051, 187.5)Temperatura (degC), Point: (29.025, 187.5)Temperatura (degC), Point: (29.61, 187.5)Temperatura (degC), Point: (29.99, 187.5)Temperatura (degC), Point: (0, 250)Temperatura (degC), Point: (15, 250)Temperatura (degC), Point: (28.051, 250)Temperatura (degC), Point: (29.025, 250)Temperatura (degC), Point: (29.61, 250)Temperatura (degC), Point: (29.99, 250)Temperatura (degC), Point: (0, 312.5)Temperatura (degC), Point: (15, 312.5)Temperatura (degC), Point: (28.051, 312.5)Temperatura (degC), Point: (29.025, 312.5)Temperatura (degC), Point: (29.61, 312.5)Temperatura (degC), Point: (29.99, 312.5)Temperatura (degC), Point: (0, 375)Temperatura (degC), Point: (15, 375)Temperatura (degC), Point: (28.051, 375)Temperatura (degC), Point: (29.025, 375)Temperatura (degC), Point: (29.61, 375)Temperatura (degC), Point: (29.99, 375)Temperatura (degC), Point: (0, 437.5)Temperatura (degC), Point: (15, 437.5)Temperatura (degC), Point: (28.051, 437.5)Temperatura (degC), Point: (29.025, 437.5)Temperatura (degC), Point: (29.61, 437.5)Temperatura (degC), Point: (29.99, 437.5)Temperatura (degC), Point: (0, 468.75)Temperatura (degC), Point: (15, 468.75)Temperatura (degC), Point: (28.051, 468.75)Temperatura (degC), Point: (29.025, 468.75)Temperatura (degC), Point: (29.61, 468.75)Temperatura (degC), Point: (29.99, 468.75)Temperatura (degC), Point: (0, 492.19)Temperatura (degC), Point: (15, 492.19)Temperatura (degC), Point: (28.051, 492.19)Temperatura (degC), Point: (29.025, 492.19)Temperatura (degC), Point: (29.61, 492.19)Temperatura (degC), Point: (29.99, 492.19)
12.000                   2.2500                   1.5000                   10000                    2500.0                   0.0000                   20.000                   20.000                   20.000                   20.000                   20.032                   20.281                   20.000                   20.000                   20.000                   20.000                   20.041                   20.322                   20.000                   20.000                   20.000                   20.000                   20.047                   20.343                   20.000                   20.000                   20.000                   20.000                   20.034                   20.291                   20.000                   20.000                   20.000                   20.000                   20.036                   20.297                   20.000                   20.000                   20.000                   20.000                   20.048                   20.346                   20.000                   20.000                   20.000                   20.000                   20.039                   20.314                   20.000                   20.000                   20.000                   20.000                   20.032                   20.281                   20.000                   20.000                   20.000                   20.000                   20.042                   20.325                   20.000                   20.000                   20.000                   20.000                   20.041                   20.321
12.000                   2.2500                   1.5000                   10000                    2500.0                   5.0000                   23.537                   37.769                   124.50                   135.72                   142.55                   145.39                   24.108                   40.487                   137.34                   150.26                   158.19                   161.37                   24.290                   41.119                   138.65                   151.97                   160.23                   163.58                   23.628                   38.193                   124.82                   136.23                   143.12                   146.00                   23.823                   39.120                   129.45                   141.34                   148.65                   151.72                   24.347                   41.311                   138.63                   152.02                   160.48                   163.89                   24.083                   40.546                   137.92                   150.54                   158.22                   161.40                   23.548                   38.163                   126.73                   138.03                   144.87                   147.73                   24.191                   40.922                   138.88                   151.80                   159.70                   162.95                   29.243                   47.817                   140.53                   152.48                   159.89                   163.00
12.000                   2.2500                   1.5000                   10000                    2500.0                   10.000                   50.132                   82.545                   187.39                   199.43                   206.94                   209.95                   52.868                   88.796                   208.27                   222.33                   231.09                   234.48                   53.607                   90.684                   216.73                   231.83                   241.22                   244.81                   50.576                   83.580                   191.37                   203.85                   211.63                   214.73                   51.433                   85.322                   195.69                   208.47                   216.44                   219.59                   53.870                   91.197                   218.33                   233.62                   243.13                   246.75                   52.811                   88.454                   205.43                   219.10                   227.61                   230.93                   50.446                   83.165                   188.18                   200.19                   207.67                   210.67                   53.512                   89.495                   208.73                   222.77                   231.52                   234.91                   60.319                   97.555                   210.99                   223.66                   231.55                   234.65
12.000                   2.2500                   1.5000                   10000                    2500.0                   15.000                   91.430                   133.57                   256.82                   270.78                   279.43                   282.71                   96.497                   142.89                   282.29                   298.39                   308.31                   311.96                   98.087                   146.26                   293.37                   310.55                   321.12                   324.95                   92.405                   135.49                   262.63                   277.07                   285.98                   289.35                   93.699                   137.49                   266.67                   281.36                   290.45                   293.86                   98.560                   147.09                   295.95                   313.46                   324.27                   328.13                   96.152                   141.83                   278.04                   293.75                   303.47                   307.06                   91.829                   133.99                   256.82                   270.65                   279.17                   282.44                   97.177                   142.99                   280.60                   296.54                   306.37                   309.99                   104.27                   150.58                   278.69                   292.61                   301.19                   304.42
12.000                   2.2500                   1.5000                   10000                    2500.0                   20.000                   140.01                   188.47                   327.92                   343.76                   353.55                   357.06                   147.03                   200.14                   357.28                   375.51                   386.64                   390.51                   149.45                   204.65                   370.31                   389.74                   401.57                   405.62                   141.54                   191.17                   335.14                   351.54                   361.59                   365.18                   143.02                   193.25                   339.10                   355.75                   365.98                   369.61                   150.12                   205.76                   373.47                   393.24                   405.29                   409.38                   146.27                   198.43                   351.51                   369.19                   380.06                   383.85                   140.25                   188.56                   327.03                   342.59                   352.08                   355.52                   146.95                   198.86                   352.42                   370.24                   381.16                   384.98                   153.85                   205.38                   344.94                   360.07                   369.33                   372.67
12.000                   2.2500                   1.5000                   10000                    2500.0                   25.000                   191.98                   245.25                   399.77                   417.50                   428.41                   432.10                   200.59                   258.91                   433.15                   453.58                   465.93                   469.99                   203.68                   264.25                   447.61                   469.35                   482.44                   486.67                   194.07                   248.74                   408.67                   427.08                   438.29                   442.08                   195.66                   250.94                   413.05                   431.74                   443.15                   446.98                   204.48                   265.52                   450.94                   473.00                   486.28                   490.54                   199.42                   256.60                   425.90                   445.63                   457.63                   461.59                   192.00                   245.13                   398.66                   416.04                   426.53                   430.13                   199.12                   255.65                   424.31                   444.01                   455.96                   459.94                   205.30                   260.46                   410.24                   426.55                   436.49                   439.90
12.000                   2.2500                   1.5000                   10000                    2500.0                   30.000                   244.77                   302.41                   471.73                   491.38                   503.37                   507.22                   254.73                   317.81                   509.04                   531.80                   545.44                   549.69                   258.38                   323.83                   524.85                   549.09                   563.56                   567.97                   247.39                   306.65                   482.34                   502.83                   515.20                   519.16                   249.05                   308.97                   487.28                   508.10                   520.70                   524.71                   259.27                   325.20                   528.15                   552.72                   567.35                   571.79                   253.17                   314.98                   500.66                   522.56                   535.75                   539.88                   244.53                   302.05                   470.62                   489.95                   501.49                   505.24                   251.55                   312.23                   495.63                   517.26                   530.26                   534.38                   256.74                   315.00                   474.33                   491.81                   502.37                   505.84
12.000                   2.2500                   1.5000                   10000                    2500.0                   35.000                   298.29                   359.90                   543.79                   565.37                   578.42                   582.41                   309.40                   376.82                   584.96                   610.14                   625.15                   629.59                   313.51                   383.41                   602.01                   628.95                   644.90                   649.50                   301.42                   364.85                   556.14                   578.75                   592.30                   596.42                   303.12                   367.31                   561.76                   584.79                   598.59                   602.78                   314.46                   384.80                   605.14                   632.39                   648.49                   653.12                   307.49                   373.55                   575.74                   599.93                   614.38                   618.67                   297.74                   359.29                   542.88                   564.27                   576.92                   580.80                   304.21                   368.63                   566.45                   590.06                   604.10                   608.35                   308.15                   369.06                   537.35                   555.97                   567.13                   570.65
12.000                   2.2500                   1.5000                   10000                    2500.0                   40.000                   351.09                   416.30                   615.66                   639.85                   654.34                   658.56                   362.69                   433.50                   655.55                   683.42                   700.12                   704.79                   366.98                   440.12                   671.70                   701.47                   719.20                   724.05                   354.54                   421.56                   628.16                   653.51                   668.65                   673.01                   356.24                   424.03                   633.92                   659.74                   675.17                   679.60                   367.90                   441.42                   674.41                   704.48                   722.38                   727.26                   360.57                   430.10                   646.88                   673.81                   689.89                   694.42                   350.26                   415.47                   615.04                   639.31                   653.59                   657.70                   355.64                   423.29                   635.12                   661.33                   676.90                   681.35                   358.08                   421.18                   597.94                   617.90                   629.79                   633.36
12.000                   2.2500                   1.5000                   10000                    2500.0                   45.000                   402.73                   471.07                   683.63                   710.60                   726.63                   731.09                   414.62                   488.30                   723.43                   754.54                   772.98                   777.87                   419.01                   494.87                   739.72                   772.91                   792.44                   797.53                   406.43                   476.51                   696.19                   724.55                   741.35                   745.93                   408.11                   478.98                   702.27                   731.24                   748.37                   753.04                   419.89                   496.07                   742.26                   775.77                   795.48                   800.59                   412.35                   484.81                   714.95                   745.15                   762.95                   767.72                   401.62                   470.01                   683.20                   710.47                   726.48                   730.82                   405.78                   476.18                   700.27                   729.49                   746.68                   751.34                   406.66                   471.62                   655.13                   676.31                   688.90                   692.53
12.000                   2.2500                   1.5000                   10000                    2500.0                   50.000                   450.80                   520.88                   738.37                   768.30                   785.94                   790.60                   462.72                   538.00                   785.21                   821.30                   841.49                   846.51                   467.14                   544.59                   806.52                   845.10                   866.32                   871.51                   454.59                   526.31                   751.65                   783.55                   801.95                   806.71                   456.27                   528.79                   758.98                   791.95                   810.77                   815.60                   467.95                   545.72                   809.91                   848.87                   870.28                   875.48                   460.37                   534.49                   774.84                   809.84                   829.48                   834.41                   449.42                   519.56                   737.65                   767.84                   785.60                   790.18                   452.17                   524.05                   754.64                   787.80                   806.77                   811.62                   451.54                   517.45                   702.09                   723.96                   737.09                   740.77
12.000                   2.2500                   1.5000                   10000                    2500.0                   55.000                   496.17                   567.00                   796.76                   829.50                   847.99                   852.63                   508.15                   584.13                   849.85                   888.12                   908.50                   913.32                   512.63                   590.91                   875.30                   915.79                   936.85                   941.70                   500.03                   572.37                   811.13                   845.57                   864.59                   869.27                   501.71                   574.87                   819.37                   854.79                   874.14                   878.87                   513.39                   592.01                   879.70                   920.63                   941.84                   946.67                   505.72                   580.55                   838.14                   875.49                   895.51                   900.29                   494.53                   565.42                   795.18                   828.02                   846.62                   851.24                   495.97                   568.49                   813.32                   849.32                   869.04                   873.86                   493.77                   559.55                   744.73                   768.03                   781.76                   785.47
12.000                   2.2500                   1.5000                   10000                    2500.0                   60.000                   539.76                   610.66                   857.60                   893.03                   911.86                   916.35                   551.79                   627.87                   916.40                   954.98                   974.53                   978.91                   556.36                   634.96                   945.40                   985.46                   1005.2                   1009.4                   543.64                   615.95                   873.28                   909.60                   928.58                   933.03                   545.33                   618.46                   882.21                   919.06                   938.17                   942.61                   557.09                   636.08                   950.93                   991.50                   1011.2                   1015.4                   549.31                   624.22                   903.69                   941.76                   961.21                   965.64                   537.85                   608.82                   854.77                   890.06                   908.92                   913.43                   538.04                   610.64                   874.87                   912.95                   932.77                   937.41                   534.24                   599.15                   784.48                   809.72                   824.08                   827.81
12.000                   2.2500                   1.5000                   10000                    2500.0                   65.000                   578.07                   647.55                   901.98                   934.49                   951.38                   955.24                   589.83                   664.00                   943.52                   975.70                   991.80                   995.28                   594.62                   672.27                   981.14                   1012.8                   1026.6                   1029.0                   581.80                   652.49                   914.37                   947.04                   963.82                   967.61                   583.44                   654.85                   921.04                   953.81                   970.54                   974.28                   595.38                   673.93                   1006.3                   1038.7                   1051.4                   1053.2                   587.33                   660.40                   935.34                   967.98                   984.45                   988.06                   576.08                   645.79                   901.02                   933.78                   950.83                   954.73                   575.45                   647.31                   925.80                   961.67                   979.72                   983.70                   570.04                   632.94                   823.42                   848.46                   862.37                   865.85
12.000                   2.2500                   1.5000                   10000                    2500.0                   70.000                   614.47                   682.08                   940.56                   969.72                   984.50                   987.71                   625.86                   697.65                   966.15                   992.32                   1005.2                   1007.8                   630.87                   707.22                   1013.1                   1037.4                   1046.2                   1047.2                   618.00                   686.63                   949.79                   978.63                   993.11                   996.20                   619.57                   688.80                   954.36                   983.01                   997.31                   1000.3                   631.68                   709.47                   1048.5                   1073.1                   1080.1                   1080.2                   623.36                   694.06                   961.85                   989.28                   1002.9                   1005.7                   612.44                   680.42                   940.33                   969.87                   984.84                   988.10                   611.18                   682.12                   977.38                   1010.5                   1025.5                   1028.3                   604.18                   664.81                   858.94                   883.05                   896.16                   899.32
12.000                   2.2500                   1.5000                   10000                    2500.0                   75.000                   647.29                   712.32                   968.57                   993.87                   1006.3                   1008.9                   658.15                   726.83                   982.12                   1003.4                   1013.5                   1015.3                   663.37                   738.00                   1038.9                   1058.5                   1064.4                   1064.4                   650.56                   716.39                   975.19                   1000.1                   1012.2                   1014.6                   652.04                   718.32                   978.10                   1002.8                   1014.6                   1016.9                   664.23                   740.90                   1066.5                   1084.4                   1088.8                   1088.1                   655.69                   723.23                   980.07                   1003.0                   1014.0                   1016.1                   645.30                   710.73                   966.78                   992.10                   1004.6                   1007.2                   643.79                   713.54                   1029.4                   1058.8                   1068.4                   1069.2                   635.24                   693.15                   887.74                   909.65                   921.37                   924.08