% Model:              batchmodel_COIL_N_12_COIL_kr_2.25_COIL_kh_1_FUNZ_freq_6000_FUNZ_I_eff_4000.mph
% Version:            COMSOL 6.0.0.318
% Date:               Feb 8 2022, 19:18
% Table:              Tabella 1 - GRIGLIA_T
% COIL_N                 COIL_kr                  COIL_kh                  FUNZ_freq                FUNZ_I_eff               Time (s)                 Temperatura (degC), Point: (0, 0)Temperatura (degC), Point: (15, 0)Temperatura (degC), Point: (27.483, 0)Temperatura (degC), Point: (28.742, 0)Temperatura (degC), Point: (29.497, 0)Temperatura (degC), Point: (29.99, 0)Temperatura (degC), Point: (0, 62.5)Temperatura (degC), Point: (15, 62.5)Temperatura (degC), Point: (27.483, 62.5)Temperatura (degC), Point: (28.742, 62.5)Temperatura (degC), Point: (29.497, 62.5)Temperatura (degC), Point: (29.99, 62.5)Temperatura (degC), Point: (0, 125)Temperatura (degC), Point: (15, 125)Temperatura (degC), Point: (27.483, 125)Temperatura (degC), Point: (28.742, 125)Temperatura (degC), Point: (29.497, 125)Temperatura (degC), Point: (29.99, 125)Temperatura (degC), Point: (0, 187.5)Temperatura (degC), Point: (15, 187.5)Temperatura (degC), Point: (27.483, 187.5)Temperatura (degC), Point: (28.742, 187.5)Temperatura (degC), Point: (29.497, 187.5)Temperatura (degC), Point: (29.99, 187.5)Temperatura (degC), Point: (0, 250)Temperatura (degC), Point: (15, 250)Temperatura (degC), Point: (27.483, 250)Temperatura (degC), Point: (28.742, 250)Temperatura (degC), Point: (29.497, 250)Temperatura (degC), Point: (29.99, 250)Temperatura (degC), Point: (0, 312.5)Temperatura (degC), Point: (15, 312.5)Temperatura (degC), Point: (27.483, 312.5)Temperatura (degC), Point: (28.742, 312.5)Temperatura (degC), Point: (29.497, 312.5)Temperatura (degC), Point: (29.99, 312.5)Temperatura (degC), Point: (0, 375)Temperatura (degC), Point: (15, 375)Temperatura (degC), Point: (27.483, 375)Temperatura (degC), Point: (28.742, 375)Temperatura (degC), Point: (29.497, 375)Temperatura (degC), Point: (29.99, 375)Temperatura (degC), Point: (0, 437.5)Temperatura (degC), Point: (15, 437.5)Temperatura (degC), Point: (27.483, 437.5)Temperatura (degC), Point: (28.742, 437.5)Temperatura (degC), Point: (29.497, 437.5)Temperatura (degC), Point: (29.99, 437.5)Temperatura (degC), Point: (0, 468.75)Temperatura (degC), Point: (15, 468.75)Temperatura (degC), Point: (27.483, 468.75)Temperatura (degC), Point: (28.742, 468.75)Temperatura (degC), Point: (29.497, 468.75)Temperatura (degC), Point: (29.99, 468.75)Temperatura (degC), Point: (0, 492.19)Temperatura (degC), Point: (15, 492.19)Temperatura (degC), Point: (27.483, 492.19)Temperatura (degC), Point: (28.742, 492.19)Temperatura (degC), Point: (29.497, 492.19)Temperatura (degC), Point: (29.99, 492.19)
12.000                   2.2500                   1.0000                   6000.0                   4000.0                   0.0000                   20.000                   20.000                   20.000                   20.000                   20.055                   20.308                   20.000                   20.000                   20.000                   20.000                   20.072                   20.359                   20.000                   20.000                   20.000                   20.000                   20.081                   20.382                   20.000                   20.000                   20.000                   20.000                   20.057                   20.315                   20.000                   20.000                   20.000                   20.000                   20.064                   20.332                   20.000                   20.000                   20.000                   20.000                   20.084                   20.390                   20.000                   20.000                   20.000                   20.000                   20.065                   20.334                   20.000                   20.000                   20.000                   20.000                   20.056                   20.310                   20.000                   20.000                   20.000                   20.000                   20.068                   20.346                   20.000                   20.000                   20.000                   20.000                   20.076                   20.369
12.000                   2.2500                   1.0000                   6000.0                   4000.0                   5.0000                   26.362                   50.700                   172.64                   194.51                   208.71                   214.24                   26.920                   54.044                   196.66                   223.35                   240.31                   246.56                   27.090                   54.967                   202.24                   228.95                   245.19                   251.19                   26.180                   49.865                   169.63                   191.54                   205.58                   211.04                   26.555                   51.934                   178.94                   200.85                   215.00                   220.72                   27.272                   55.981                   211.46                   241.61                   260.58                   267.31                   26.550                   51.960                   182.13                   204.93                   219.22                   224.69                   26.301                   50.679                   174.07                   195.91                   210.02                   215.37                   26.700                   52.603                   185.76                   209.81                   225.32                   230.52                   31.973                   60.111                   191.08                   213.57                   227.94                   233.12
12.000                   2.2500                   1.0000                   6000.0                   4000.0                   10.000                   65.890                   117.98                   281.98                   309.21                   325.83                   331.50                   70.451                   129.76                   322.05                   354.45                   374.11                   380.62                   71.628                   133.04                   337.15                   372.88                   394.67                   401.80                   65.110                   117.22                   285.92                   314.04                   331.46                   337.32                   67.464                   122.29                   300.50                   330.91                   349.54                   355.64                   72.614                   135.18                   341.17                   376.42                   397.74                   404.72                   67.843                   123.32                   303.86                   335.17                   354.62                   360.91                   66.114                   119.16                   290.18                   319.14                   337.00                   343.05                   68.039                   123.31                   305.53                   337.07                   356.44                   363.12                   75.432                   133.82                   311.88                   341.40                   359.56                   365.62
12.000                   2.2500                   1.0000                   6000.0                   4000.0                   15.000                   130.41                   198.20                   403.25                   437.44                   457.79                   464.20                   139.76                   215.27                   448.03                   487.65                   511.09                   518.38                   142.51                   221.45                   472.12                   515.51                   540.74                   548.42                   129.90                   199.27                   413.96                   451.39                   473.67                   480.49                   133.85                   205.17                   424.33                   462.05                   484.66                   491.65                   143.46                   222.69                   477.82                   523.67                   550.71                   558.66                   134.69                   206.41                   425.65                   462.92                   484.70                   491.19                   131.03                   199.66                   406.23                   440.83                   461.36                   467.55                   133.73                   204.10                   417.15                   453.28                   474.94                   481.17                   139.95                   212.76                   414.19                   445.94                   465.17                   471.20
12.000                   2.2500                   1.0000                   6000.0                   4000.0                   20.000                   206.15                   286.40                   542.17                   587.85                   613.82                   621.16                   218.30                   306.03                   592.65                   646.07                   675.89                   683.96                   222.49                   313.81                   614.05                   670.38                   701.30                   709.61                   206.67                   288.80                   550.63                   597.10                   623.52                   630.93                   210.80                   294.56                   564.31                   612.96                   640.49                   648.18                   222.85                   314.39                   616.35                   672.85                   703.85                   712.21                   211.74                   295.69                   565.89                   614.75                   642.45                   650.21                   206.03                   285.89                   537.62                   582.02                   607.51                   614.80                   208.13                   289.17                   547.52                   593.23                   619.15                   626.64                   216.08                   296.82                   528.92                   567.14                   588.94                   595.27
12.000                   2.2500                   1.0000                   6000.0                   4000.0                   25.000                   284.82                   375.51                   664.79                   718.51                   748.30                   756.19                   298.08                   395.42                   711.51                   774.14                   809.08                   818.05                   303.04                   403.59                   736.19                   806.37                   844.80                   854.21                   286.01                   378.12                   671.39                   726.03                   756.28                   764.28                   289.95                   383.75                   684.28                   741.11                   772.55                   780.78                   303.01                   403.94                   740.39                   812.43                   851.52                   861.04                   290.78                   384.69                   685.91                   743.02                   774.62                   782.88                   283.38                   373.23                   659.63                   712.71                   742.17                   750.00                   284.13                   374.51                   664.72                   718.89                   748.93                   756.88                   291.21                   379.27                   634.22                   677.58                   702.04                   708.67
12.000                   2.2500                   1.0000                   6000.0                   4000.0                   30.000                   362.11                   459.02                   762.52                   825.76                   859.65                   867.84                   375.71                   478.96                   831.03                   909.67                   947.41                   955.78                   381.07                   487.53                   870.42                   955.09                   993.54                   1001.7                   363.62                   461.64                   771.10                   836.81                   871.41                   879.69                   367.39                   467.24                   790.45                   861.26                   897.36                   905.79                   380.86                   487.98                   879.64                   966.26                   1005.1                   1013.2                   368.08                   468.08                   793.36                   864.93                   901.26                   909.71                   359.50                   455.70                   757.09                   819.40                   853.18                   861.39                   358.65                   454.97                   762.30                   827.62                   862.56                   871.00                   364.06                   456.54                   716.67                   761.51                   787.19                   793.85
12.000                   2.2500                   1.0000                   6000.0                   4000.0                   35.000                   432.96                   530.78                   841.13                   901.28                   930.86                   937.45                   446.68                   551.13                   890.69                   948.14                   974.96                   980.59                   452.67                   563.00                   970.48                   1028.2                   1048.6                   1051.4                   434.57                   533.40                   849.45                   910.13                   939.66                   946.18                   438.28                   539.01                   865.29                   926.14                   955.23                   961.54                   452.74                   566.35                   1091.3                   1140.2                   1151.3                   1151.1                   438.86                   539.81                   867.00                   927.64                   956.58                   962.84                   429.69                   527.26                   839.45                   900.99                   931.25                   938.01                   427.51                   525.81                   859.97                   928.57                   961.29                   968.41                   430.76                   523.38                   782.08                   831.10                   857.19                   863.45
12.000                   2.2500                   1.0000                   6000.0                   4000.0                   40.000                   496.73                   592.57                   909.50                   964.52                   990.46                   995.81                   511.11                   612.75                   929.24                   973.46                   994.13                   998.23                   518.51                   629.89                   1046.4                   1083.9                   1093.7                   1093.6                   498.40                   594.96                   914.66                   969.24                   994.88                   1000.1                   502.19                   600.15                   920.40                   972.82                   997.44                   1002.4                   519.35                   637.37                   1134.6                   1160.0                   1164.5                   1162.9                   502.74                   600.86                   919.30                   970.90                   995.21                   1000.1                   493.18                   589.20                   904.73                   959.11                   984.82                   990.16                   490.40                   590.09                   1009.7                   1074.3                   1093.2                   1095.0                   491.09                   581.49                   836.54                   880.95                   903.60                   908.71
12.000                   2.2500                   1.0000                   6000.0                   4000.0                   45.000                   553.20                   644.83                   966.82                   1014.1                   1034.3                   1037.7                   568.33                   664.53                   965.54                   1000.0                   1015.2                   1017.7                   577.38                   686.20                   1085.1                   1109.7                   1115.0                   1113.8                   554.86                   646.70                   963.36                   1009.8                   1030.0                   1033.5                   558.74                   651.14                   956.83                   999.84                   1019.3                   1022.9                   579.17                   696.20                   1132.9                   1150.0                   1152.3                   1150.4                   559.30                   651.76                   953.95                   995.99                   1015.3                   1018.9                   549.57                   640.92                   947.33                   993.11                   1014.2                   1018.2                   547.66                   648.71                   1096.3                   1129.5                   1136.6                   1135.6                   544.91                   630.18                   870.18                   907.12                   925.78                   929.80
12.000                   2.2500                   1.0000                   6000.0                   4000.0                   50.000                   601.31                   688.85                   1037.0                   1074.7                   1085.1                   1085.3                   616.51                   706.71                   998.45                   1026.6                   1037.0                   1038.1                   626.66                   731.07                   1097.8                   1115.6                   1118.7                   1117.2                   602.80                   689.16                   983.20                   1016.5                   1030.0                   1031.9                   606.56                   692.29                   964.99                   996.02                   1010.3                   1012.7                   629.18                   742.34                   1124.9                   1137.9                   1139.3                   1137.2                   607.13                   692.86                   963.81                   994.62                   1008.8                   1011.3                   597.48                   682.78                   975.99                   1015.0                   1031.8                   1034.5                   597.88                   698.14                   1110.7                   1132.8                   1136.8                   1135.3                   591.23                   670.27                   899.32                   931.47                   947.65                   951.00
12.000                   2.2500                   1.0000                   6000.0                   4000.0                   55.000                   642.58                   726.20                   1067.3                   1093.7                   1099.7                   1098.9                   657.31                   742.45                   1029.0                   1052.3                   1059.4                   1059.2                   667.95                   771.38                   1104.0                   1117.5                   1119.3                   1117.5                   643.80                   724.38                   1000.4                   1026.0                   1035.5                   1036.3                   647.32                   726.12                   972.75                   996.08                   1006.7                   1008.3                   670.91                   784.40                   1120.0                   1130.4                   1131.1                   1128.9                   647.87                   726.67                   973.21                   996.62                   1007.3                   1008.9                   638.39                   717.19                   992.71                   1024.8                   1037.8                   1039.5                   641.39                   739.34                   1112.8                   1129.2                   1131.6                   1129.8                   631.33                   704.30                   926.20                   953.90                   967.79                   970.49
12.000                   2.2500                   1.0000                   6000.0                   4000.0                   60.000                   677.15                   759.39                   1076.1                   1095.9                   1100.0                   1098.7                   690.83                   777.25                   1053.2                   1071.8                   1076.5                   1075.6                   700.99                   811.05                   1107.6                   1118.1                   1119.1                   1117.1                   678.04                   755.44                   1016.3                   1037.3                   1044.3                   1044.4                   681.20                   756.22                   986.19                   1004.7                   1012.7                   1013.6                   703.93                   824.40                   1117.9                   1126.3                   1126.5                   1124.3                   681.71                   756.89                   988.04                   1006.8                   1014.9                   1015.8                   672.61                   746.26                   999.54                   1024.8                   1034.9                   1036.0                   677.91                   777.52                   1111.7                   1124.5                   1126.0                   1124.0                   665.49                   733.29                   950.97                   974.33                   985.85                   987.89
12.000                   2.2500                   1.0000                   6000.0                   4000.0                   65.000                   705.09                   791.89                   1076.8                   1092.7                   1095.8                   1094.3                   716.87                   813.21                   1070.2                   1084.6                   1087.4                   1086.1                   725.71                   848.45                   1109.8                   1118.1                   1118.4                   1116.2                   705.67                   786.72                   1030.2                   1047.6                   1052.8                   1052.3                   708.34                   787.48                   1005.0                   1020.4                   1026.2                   1026.4                   728.53                   861.01                   1117.3                   1124.1                   1123.9                   1121.6                   708.79                   788.35                   1007.9                   1023.8                   1029.6                   1029.7                   700.57                   774.38                   1006.2                   1026.2                   1033.9                   1034.4                   707.33                   814.91                   1109.9                   1120.0                   1120.8                   1118.8                   694.25                   761.13                   976.18                   995.72                   1004.7                   1006.0
12.000                   2.2500                   1.0000                   6000.0                   4000.0                   70.000                   724.98                   822.07                   1073.6                   1087.0                   1089.4                   1087.9                   739.03                   847.38                   1078.9                   1090.3                   1092.1                   1090.4                   751.28                   880.45                   1111.1                   1117.8                   1117.7                   1115.5                   725.57                   818.10                   1041.4                   1056.0                   1059.8                   1059.0                   728.70                   820.76                   1026.9                   1040.2                   1044.4                   1043.8                   755.46                   891.71                   1117.8                   1123.5                   1122.9                   1120.6                   729.22                   821.76                   1029.5                   1043.1                   1047.2                   1046.6                   720.03                   803.82                   1017.6                   1034.5                   1040.5                   1040.5                   728.74                   846.60                   1106.9                   1115.5                   1115.8                   1113.7                   714.92                   797.57                   1019.6                   1035.6                   1041.5                   1041.5
12.000                   2.2500                   1.0000                   6000.0                   4000.0                   75.000                   744.07                   852.02                   1069.9                   1081.1                   1082.9                   1081.3                   760.83                   881.36                   1086.8                   1095.3                   1096.1                   1094.2                   776.98                   911.91                   1112.2                   1117.5                   1117.0                   1114.7                   744.70                   849.48                   1052.4                   1064.2                   1066.7                   1065.5                   748.39                   854.24                   1049.1                   1060.4                   1062.9                   1061.7                   782.66                   921.83                   1118.4                   1122.9                   1122.0                   1119.7                   749.01                   855.36                   1051.3                   1062.6                   1065.1                   1063.9                   738.65                   833.41                   1029.6                   1043.6                   1047.9                   1047.4                   749.37                   877.72                   1103.7                   1110.9                   1110.9                   1108.7                   734.79                   834.89                   1064.8                   1077.4                   1080.0                   1078.7