% Model:              batchmodel_COIL_N_12_COIL_kr_3_COIL_kh_1.5_FUNZ_freq_2000_FUNZ_I_eff_4000.mph
% Version:            COMSOL 6.0.0.318
% Date:               Feb 8 2022, 20:17
% Table:              Tabella 1 - GRIGLIA_T
% COIL_N                 COIL_kr                  COIL_kh                  FUNZ_freq                FUNZ_I_eff               Time (s)                 Temperatura (degC), Point: (0, 0)Temperatura (degC), Point: (15, 0)Temperatura (degC), Point: (25.641, 0)Temperatura (degC), Point: (27.821, 0)Temperatura (degC), Point: (29.128, 0)Temperatura (degC), Point: (29.99, 0)Temperatura (degC), Point: (0, 62.5)Temperatura (degC), Point: (15, 62.5)Temperatura (degC), Point: (25.641, 62.5)Temperatura (degC), Point: (27.821, 62.5)Temperatura (degC), Point: (29.128, 62.5)Temperatura (degC), Point: (29.99, 62.5)Temperatura (degC), Point: (0, 125)Temperatura (degC), Point: (15, 125)Temperatura (degC), Point: (25.641, 125)Temperatura (degC), Point: (27.821, 125)Temperatura (degC), Point: (29.128, 125)Temperatura (degC), Point: (29.99, 125)Temperatura (degC), Point: (0, 187.5)Temperatura (degC), Point: (15, 187.5)Temperatura (degC), Point: (25.641, 187.5)Temperatura (degC), Point: (27.821, 187.5)Temperatura (degC), Point: (29.128, 187.5)Temperatura (degC), Point: (29.99, 187.5)Temperatura (degC), Point: (0, 250)Temperatura (degC), Point: (15, 250)Temperatura (degC), Point: (25.641, 250)Temperatura (degC), Point: (27.821, 250)Temperatura (degC), Point: (29.128, 250)Temperatura (degC), Point: (29.99, 250)Temperatura (degC), Point: (0, 312.5)Temperatura (degC), Point: (15, 312.5)Temperatura (degC), Point: (25.641, 312.5)Temperatura (degC), Point: (27.821, 312.5)Temperatura (degC), Point: (29.128, 312.5)Temperatura (degC), Point: (29.99, 312.5)Temperatura (degC), Point: (0, 375)Temperatura (degC), Point: (15, 375)Temperatura (degC), Point: (25.641, 375)Temperatura (degC), Point: (27.821, 375)Temperatura (degC), Point: (29.128, 375)Temperatura (degC), Point: (29.99, 375)Temperatura (degC), Point: (0, 437.5)Temperatura (degC), Point: (15, 437.5)Temperatura (degC), Point: (25.641, 437.5)Temperatura (degC), Point: (27.821, 437.5)Temperatura (degC), Point: (29.128, 437.5)Temperatura (degC), Point: (29.99, 437.5)Temperatura (degC), Point: (0, 468.75)Temperatura (degC), Point: (15, 468.75)Temperatura (degC), Point: (25.641, 468.75)Temperatura (degC), Point: (27.821, 468.75)Temperatura (degC), Point: (29.128, 468.75)Temperatura (degC), Point: (29.99, 468.75)Temperatura (degC), Point: (0, 492.19)Temperatura (degC), Point: (15, 492.19)Temperatura (degC), Point: (25.641, 492.19)Temperatura (degC), Point: (27.821, 492.19)Temperatura (degC), Point: (29.128, 492.19)Temperatura (degC), Point: (29.99, 492.19)
12.000                   3.0000                   1.5000                   2000.0                   4000.0                   0.0000                   20.000                   20.000                   20.000                   20.000                   20.020                   20.120                   20.000                   20.000                   20.000                   20.000                   20.021                   20.123                   20.000                   20.000                   20.000                   20.000                   20.021                   20.124                   20.000                   20.000                   20.000                   20.000                   20.021                   20.121                   20.000                   20.000                   20.000                   20.000                   20.021                   20.121                   20.000                   20.000                   20.000                   20.000                   20.021                   20.124                   20.000                   20.000                   20.000                   20.000                   20.021                   20.122                   20.000                   20.000                   20.000                   20.000                   20.020                   20.119                   20.000                   20.000                   20.000                   20.000                   20.018                   20.115                   20.000                   20.000                   20.000                   20.000                   20.010                   20.091
12.000                   3.0000                   1.5000                   2000.0                   4000.0                   5.0000                   23.610                   35.875                   86.261                   104.39                   115.93                   120.08                   23.731                   36.614                   91.317                   111.57                   124.80                   130.34                   23.768                   36.849                   92.475                   113.13                   126.42                   131.74                   23.638                   36.156                   88.782                   107.74                   119.77                   124.42                   23.617                   36.101                   89.857                   109.80                   122.91                   127.96                   23.763                   36.850                   92.339                   112.27                   124.67                   129.37                   23.612                   36.049                   88.819                   108.52                   120.97                   125.84                   23.480                   35.426                   85.481                   103.68                   115.15                   119.62                   23.211                   34.436                   83.587                   102.15                   114.11                   118.75                   23.527                   32.990                   68.291                   79.941                   86.410                   89.417
12.000                   3.0000                   1.5000                   2000.0                   4000.0                   10.000                   47.108                   76.121                   148.86                   171.82                   186.35                   192.04                   47.749                   77.496                   151.53                   174.76                   189.57                   194.89                   47.897                   77.632                   149.85                   171.89                   185.77                   191.02                   47.035                   75.995                   148.26                   171.16                   185.93                   191.49                   46.982                   75.932                   147.86                   170.36                   184.47                   190.04                   47.554                   77.190                   150.43                   172.88                   186.93                   192.35                   46.956                   76.077                   149.33                   172.61                   187.38                   192.97                   46.018                   74.017                   144.26                   166.49                   180.65                   185.99                   43.806                   69.595                   134.42                   154.35                   166.88                   171.85                   42.720                   64.356                   113.80                   128.14                   136.90                   140.53
12.000                   3.0000                   1.5000                   2000.0                   4000.0                   15.000                   83.116                   121.04                   203.10                   226.63                   240.43                   245.90                   83.762                   122.06                   206.34                   231.53                   247.10                   252.46                   83.584                   120.88                   198.69                   220.56                   233.45                   238.59                   82.615                   120.04                   200.67                   224.46                   239.28                   244.76                   82.341                   119.60                   199.88                   222.97                   236.88                   242.46                   83.465                   121.58                   203.12                   225.91                   239.43                   244.94                   82.446                   120.20                   202.16                   225.95                   240.50                   245.77                   80.587                   117.34                   197.67                   221.10                   235.44                   240.97                   75.198                   108.51                   180.83                   201.20                   213.36                   218.24                   72.507                   101.00                   157.85                   172.62                   181.33                   185.06
12.000                   3.0000                   1.5000                   2000.0                   4000.0                   20.000                   126.31                   168.68                   258.95                   285.70                   302.36                   308.04                   126.60                   169.16                   260.78                   288.25                   305.42                   311.18                   125.96                   167.49                   256.14                   282.85                   299.64                   305.39                   125.38                   167.24                   256.62                   283.37                   300.16                   305.86                   124.79                   166.43                   255.56                   282.20                   298.90                   304.62                   126.54                   169.19                   260.24                   287.37                   304.35                   310.15                   125.00                   167.10                   257.30                   284.20                   301.04                   306.74                   122.07                   163.04                   250.14                   275.80                   291.85                   297.38                   112.76                   149.39                   226.70                   249.29                   263.52                   268.59                   106.54                   136.96                   194.68                   209.91                   219.39                   223.05
12.000                   3.0000                   1.5000                   2000.0                   4000.0                   25.000                   172.19                   218.12                   317.52                   347.58                   366.20                   372.22                   172.22                   218.42                   319.11                   349.74                   368.70                   374.80                   171.37                   217.06                   317.16                   347.83                   366.89                   373.03                   171.07                   216.74                   315.92                   346.03                   364.70                   370.74                   170.26                   215.77                   314.81                   344.92                   363.58                   369.63                   172.48                   218.99                   320.31                   351.20                   370.33                   376.48                   170.43                   216.22                   315.83                   346.09                   364.84                   370.90                   165.85                   209.91                   304.32                   332.57                   350.15                   355.91                   152.22                   191.23                   274.12                   298.75                   314.26                   319.53                   141.47                   172.71                   231.84                   247.77                   257.76                   261.45
12.000                   3.0000                   1.5000                   2000.0                   4000.0                   30.000                   219.10                   268.59                   377.04                   410.16                   430.35                   436.60                   219.16                   269.06                   379.05                   412.77                   433.28                   439.59                   218.32                   268.07                   378.55                   412.58                   433.31                   439.69                   217.97                   267.34                   375.89                   409.12                   429.38                   435.63                   217.12                   266.40                   374.84                   407.99                   428.15                   434.43                   219.59                   269.94                   381.27                   415.57                   436.39                   442.75                   217.08                   266.47                   375.06                   408.27                   428.51                   434.81                   210.26                   257.33                   359.39                   390.30                   409.29                   415.25                   192.17                   233.46                   322.14                   348.76                   365.37                   370.78                   177.06                   209.25                   270.63                   287.35                   297.79                   301.52
12.000                   3.0000                   1.5000                   2000.0                   4000.0                   35.000                   265.59                   318.46                   435.47                   471.51                   493.14                   499.57                   265.72                   319.16                   437.99                   474.68                   496.64                   503.13                   264.91                   318.51                   438.75                   476.00                   498.29                   504.86                   264.45                   317.32                   434.67                   470.85                   492.55                   498.98                   263.58                   316.42                   433.70                   469.74                   491.27                   497.73                   266.29                   320.27                   441.09                   478.66                   501.07                   507.61                   263.31                   316.11                   433.19                   469.20                   490.80                   497.30                   254.17                   304.09                   413.31                   446.68                   466.95                   473.07                   231.72                   275.16                   369.23                   397.69                   415.27                   420.80                   212.45                   245.56                   309.08                   326.51                   337.36                   341.13
12.000                   3.0000                   1.5000                   2000.0                   4000.0                   40.000                   310.53                   366.14                   489.94                   528.33                   550.95                   557.40                   310.88                   367.24                   493.28                   532.50                   555.57                   562.13                   310.17                   366.85                   494.66                   534.54                   558.02                   564.63                   309.36                   365.00                   489.10                   527.60                   550.29                   556.72                   308.58                   364.25                   488.36                   526.69                   549.12                   555.59                   311.46                   368.41                   496.77                   537.08                   560.72                   567.32                   308.01                   363.54                   487.27                   525.56                   548.12                   554.64                   296.30                   348.41                   463.05                   498.17                   519.23                   525.35                   269.83                   314.93                   412.95                   442.67                   460.82                   466.35                   247.11                   281.03                   346.29                   364.18                   375.26                   379.03
12.000                   3.0000                   1.5000                   2000.0                   4000.0                   45.000                   355.47                   413.83                   544.42                   585.15                   608.76                   615.22                   356.05                   415.32                   548.56                   590.33                   614.51                   621.12                   355.43                   415.19                   550.57                   593.09                   617.74                   624.40                   354.28                   412.68                   543.53                   584.36                   608.03                   614.47                   353.59                   412.07                   543.02                   583.63                   606.97                   613.44                   356.62                   416.55                   552.45                   595.50                   620.37                   627.02                   352.71                   410.97                   541.36                   581.92                   605.44                   611.98                   338.43                   392.74                   512.79                   549.66                   571.50                   577.62                   307.94                   354.69                   456.67                   487.65                   506.36                   511.91                   281.77                   316.50                   383.49                   401.85                   413.15                   416.93
12.000                   3.0000                   1.5000                   2000.0                   4000.0                   50.000                   400.41                   461.52                   598.89                   641.97                   666.57                   673.05                   401.21                   463.39                   603.85                   648.15                   673.44                   680.11                   400.70                   463.53                   606.48                   651.64                   677.47                   684.17                   399.20                   460.36                   597.96                   641.11                   665.76                   672.21                   398.59                   459.89                   597.67                   640.58                   664.83                   671.29                   401.79                   464.69                   608.13                   653.93                   680.02                   686.72                   397.42                   458.40                   595.44                   638.28                   662.76                   669.33                   380.57                   437.06                   562.53                   601.15                   623.77                   629.90                   346.05                   394.46                   500.39                   532.63                   551.91                   557.46                   316.42                   351.97                   420.70                   439.53                   451.05                   454.83
12.000                   3.0000                   1.5000                   2000.0                   4000.0                   55.000                   441.59                   504.10                   644.73                   690.28                   716.05                   722.52                   442.61                   506.27                   650.26                   697.39                   723.96                   730.61                   442.20                   506.54                   653.03                   701.12                   728.23                   734.92                   440.35                   502.91                   643.71                   689.26                   715.07                   721.51                   439.84                   502.57                   643.60                   688.94                   714.31                   720.75                   443.13                   507.49                   654.51                   703.30                   730.72                   737.42                   438.40                   500.79                   641.01                   686.13                   711.78                   718.34                   419.45                   477.38                   605.98                   645.95                   669.11                   675.15                   381.97                   431.83                   541.38                   574.97                   594.78                   600.28                   349.67                   385.96                   456.31                   475.58                   487.28                   491.01
12.000                   3.0000                   1.5000                   2000.0                   4000.0                   60.000                   480.53                   543.64                   685.44                   733.53                   760.58                   767.02                   481.79                   546.04                   691.40                   741.54                   769.48                   776.07                   481.47                   546.38                   694.03                   745.21                   773.67                   780.32                   479.28                   542.41                   684.30                   732.29                   759.38                   765.79                   478.87                   542.18                   684.34                   732.20                   758.82                   765.22                   482.19                   547.12                   695.38                   747.30                   776.10                   782.79                   477.18                   540.18                   681.52                   728.94                   755.87                   762.40                   456.40                   515.31                   645.69                   686.77                   710.33                   716.22                   416.60                   467.78                   580.75                   615.74                   636.05                   641.46                   382.08                   419.07                   490.97                   510.66                   522.53                   526.18
12.000                   3.0000                   1.5000                   2000.0                   4000.0                   65.000                   519.48                   583.18                   726.16                   776.79                   805.11                   811.51                   520.96                   585.82                   732.53                   785.69                   815.01                   821.53                   520.75                   586.22                   735.02                   789.29                   819.10                   825.71                   518.21                   581.92                   724.89                   775.33                   803.68                   810.07                   517.90                   581.80                   725.08                   775.46                   803.33                   809.69                   521.25                   586.74                   736.24                   791.30                   821.49                   828.15                   515.95                   579.58                   722.02                   771.74                   799.96                   806.47                   493.35                   553.24                   685.41                   727.59                   751.56                   757.29                   451.22                   503.74                   620.12                   656.51                   677.33                   682.65                   414.49                   452.18                   525.63                   545.75                   557.77                   561.36
12.000                   3.0000                   1.5000                   2000.0                   4000.0                   70.000                   554.92                   618.81                   772.88                   828.72                   858.13                   864.30                   556.56                   621.62                   780.36                   838.44                   868.61                   874.84                   556.41                   622.07                   783.00                   842.08                   872.63                   878.91                   553.66                   617.57                   771.60                   827.38                   856.87                   863.05                   553.43                   617.53                   771.97                   827.77                   856.92                   863.07                   556.76                   622.46                   784.17                   843.87                   874.69                   881.01                   551.36                   615.27                   768.98                   824.40                   853.88                   860.17                   527.42                   587.56                   724.33                   771.56                   797.41                   803.25                   483.55                   536.68                   654.45                   691.68                   713.00                   718.29                   445.27                   483.75                   558.84                   579.54                   591.82                   595.34
12.000                   3.0000                   1.5000                   2000.0                   4000.0                   75.000                   588.96                   652.88                   822.01                   884.12                   914.54                   920.41                   590.72                   655.84                   830.88                   894.64                   925.45                   931.29                   590.64                   656.31                   833.78                   898.34                   929.38                   935.23                   587.72                   651.68                   820.77                   883.05                   913.61                   919.51                   587.56                   651.70                   821.33                   883.69                   914.13                   920.02                   590.85                   656.61                   834.92                   899.86                   931.01                   936.87                   585.42                   649.49                   818.52                   881.01                   911.73                   917.73                   560.32                   620.43                   762.94                   816.79                   845.11                   851.17                   514.96                   568.41                   686.75                   724.61                   746.42                   751.71                   475.40                   514.69                   591.47                   612.82                   625.39                   628.85