% Model:              batchmodel_COIL_N_12_COIL_kr_1.5_COIL_kh_1_FUNZ_freq_10000_FUNZ_I_eff_1000.mph
% Version:            COMSOL 6.0.0.318
% Date:               Feb 8 2022, 18:04
% Table:              Tabella 1 - GRIGLIA_T
% COIL_N                 COIL_kr                  COIL_kh                  FUNZ_freq                FUNZ_I_eff               Time (s)                 Temperatura (degC), Point: (0, 0)Temperatura (degC), Point: (15, 0)Temperatura (degC), Point: (28.051, 0)Temperatura (degC), Point: (29.025, 0)Temperatura (degC), Point: (29.61, 0)Temperatura (degC), Point: (29.99, 0)Temperatura (degC), Point: (0, 62.5)Temperatura (degC), Point: (15, 62.5)Temperatura (degC), Point: (28.051, 62.5)Temperatura (degC), Point: (29.025, 62.5)Temperatura (degC), Point: (29.61, 62.5)Temperatura (degC), Point: (29.99, 62.5)Temperatura (degC), Point: (0, 125)Temperatura (degC), Point: (15, 125)Temperatura (degC), Point: (28.051, 125)Temperatura (degC), Point: (29.025, 125)Temperatura (degC), Point: (29.61, 125)Temperatura (degC), Point: (29.99, 125)Temperatura (degC), Point: (0, 187.5)Temperatura (degC), Point: (15, 187.5)Temperatura (degC), Point: (28.051, 187.5)Temperatura (degC), Point: (29.025, 187.5)Temperatura (degC), Point: (29.61, 187.5)Temperatura (degC), Point: (29.99, 187.5)Temperatura (degC), Point: (0, 250)Temperatura (degC), Point: (15, 250)Temperatura (degC), Point: (28.051, 250)Temperatura (degC), Point: (29.025, 250)Temperatura (degC), Point: (29.61, 250)Temperatura (degC), Point: (29.99, 250)Temperatura (degC), Point: (0, 312.5)Temperatura (degC), Point: (15, 312.5)Temperatura (degC), Point: (28.051, 312.5)Temperatura (degC), Point: (29.025, 312.5)Temperatura (degC), Point: (29.61, 312.5)Temperatura (degC), Point: (29.99, 312.5)Temperatura (degC), Point: (0, 375)Temperatura (degC), Point: (15, 375)Temperatura (degC), Point: (28.051, 375)Temperatura (degC), Point: (29.025, 375)Temperatura (degC), Point: (29.61, 375)Temperatura (degC), Point: (29.99, 375)Temperatura (degC), Point: (0, 437.5)Temperatura (degC), Point: (15, 437.5)Temperatura (degC), Point: (28.051, 437.5)Temperatura (degC), Point: (29.025, 437.5)Temperatura (degC), Point: (29.61, 437.5)Temperatura (degC), Point: (29.99, 437.5)Temperatura (degC), Point: (0, 468.75)Temperatura (degC), Point: (15, 468.75)Temperatura (degC), Point: (28.051, 468.75)Temperatura (degC), Point: (29.025, 468.75)Temperatura (degC), Point: (29.61, 468.75)Temperatura (degC), Point: (29.99, 468.75)Temperatura (degC), Point: (0, 492.19)Temperatura (degC), Point: (15, 492.19)Temperatura (degC), Point: (28.051, 492.19)Temperatura (degC), Point: (29.025, 492.19)Temperatura (degC), Point: (29.61, 492.19)Temperatura (degC), Point: (29.99, 492.19)
12.000                   1.5000                   1.0000                   10000                    1000.0                   0.0000                   20.000                   20.000                   20.000                   20.000                   20.001                   20.064                   20.000                   20.000                   20.000                   20.000                   20.004                   20.110                   20.000                   20.000                   20.000                   20.000                   20.007                   20.142                   20.000                   20.000                   20.000                   20.000                   20.002                   20.069                   20.000                   20.000                   20.000                   20.000                   20.002                   20.083                   20.000                   20.000                   20.000                   20.000                   20.009                   20.157                   20.000                   20.000                   20.000                   20.000                   20.002                   20.086                   20.000                   20.000                   20.000                   20.000                   20.001                   20.067                   20.000                   20.000                   20.000                   20.000                   20.003                   20.098                   20.000                   20.000                   20.000                   20.000                   20.008                   20.146
12.000                   1.5000                   1.0000                   10000                    1000.0                   5.0000                   20.935                   23.089                   34.497                   35.995                   36.949                   37.468                   21.471                   25.204                   45.926                   48.709                   50.484                   51.401                   21.739                   26.370                   53.542                   57.371                   59.846                   61.096                   21.005                   23.360                   35.804                   37.428                   38.457                   39.018                   21.174                   24.011                   39.179                   41.171                   42.436                   43.114                   21.838                   26.828                   56.630                   60.861                   63.590                   64.942                   21.219                   24.179                   40.006                   42.078                   43.393                   44.093                   20.972                   23.238                   35.200                   36.766                   37.763                   38.305                   21.352                   24.706                   43.050                   45.491                   47.046                   47.861                   22.127                   27.333                   55.437                   59.284                   61.764                   63.007
12.000                   1.5000                   1.0000                   10000                    1000.0                   10.000                   25.134                   30.146                   45.679                   47.284                   48.274                   48.802                   27.617                   35.981                   63.439                   66.384                   68.209                   69.131                   28.787                   38.977                   74.388                   78.417                   80.950                   82.204                   25.478                   30.921                   47.816                   49.560                   50.635                   51.206                   26.258                   32.724                   53.099                   55.218                   56.524                   57.207                   29.209                   40.102                   78.575                   82.987                   85.753                   87.092                   26.474                   33.208                   54.447                   56.657                   58.021                   58.730                   25.325                   30.576                   46.837                   48.514                   49.547                   50.097                   27.104                   34.670                   59.124                   61.714                   63.315                   64.135                   30.273                   41.523                   78.174                   82.192                   84.708                   85.938
12.000                   1.5000                   1.0000                   10000                    1000.0                   15.000                   32.478                   39.289                   56.709                   58.375                   59.391                   59.929                   37.518                   48.590                   78.837                   81.874                   83.740                   84.671                   39.806                   53.130                   91.657                   95.761                   98.311                   99.547                   33.198                   40.564                   59.482                   61.295                   62.402                   62.983                   34.848                   43.567                   66.299                   68.495                   69.836                   70.527                   40.609                   54.784                   96.483                   100.99                   103.80                   105.14                   35.239                   44.255                   67.857                   70.146                   71.544                   72.263                   32.897                   40.022                   58.248                   59.987                   61.048                   61.607                   36.560                   46.617                   73.611                   76.276                   77.908                   78.735                   42.833                   57.445                   97.285                   101.38                   103.93                   105.16
12.000                   1.5000                   1.0000                   10000                    1000.0                   20.000                   41.959                   49.718                   68.087                   69.799                   70.842                   71.390                   49.508                   61.873                   93.378                   96.484                   98.391                   99.336                   52.844                   67.593                   107.39                   111.56                   114.15                   115.39                   43.066                   51.432                   71.348                   73.208                   74.343                   74.935                   45.666                   55.571                   79.508                   81.761                   83.135                   83.839                   53.988                   69.628                   112.62                   117.21                   120.08                   121.43                   46.156                   56.316                   81.049                   83.392                   84.822                   85.553                   42.636                   50.748                   69.967                   71.754                   72.843                   73.413                   48.205                   59.466                   87.607                   90.330                   91.996                   92.834                   57.591                   73.692                   114.71                   118.87                   121.45                   122.69
12.000                   1.5000                   1.0000                   10000                    1000.0                   25.000                   53.099                   61.299                   80.236                   81.989                   83.059                   83.618                   62.544                   75.444                   107.66                   110.84                   112.79                   113.75                   66.652                   81.963                   122.53                   126.78                   129.42                   130.68                   54.546                   63.373                   83.876                   85.779                   86.940                   87.542                   57.984                   68.441                   93.079                   95.382                   96.787                   97.502                   68.007                   84.197                   127.92                   132.59                   135.51                   136.88                   58.450                   69.122                   94.519                   96.914                   98.376                   99.118                   54.060                   62.640                   82.468                   84.300                   85.417                   85.998                   61.136                   72.899                   101.69                   104.47                   106.17                   107.02                   73.003                   89.625                   131.21                   135.43                   138.05                   139.30
12.000                   1.5000                   1.0000                   10000                    1000.0                   30.000                   64.457                   73.033                   92.489                   94.284                   95.379                   95.948                   75.716                   89.053                   121.92                   125.16                   127.15                   128.12                   80.560                   96.320                   137.60                   141.93                   144.62                   145.89                   66.239                   75.455                   96.494                   98.438                   99.625                   100.24                   70.498                   81.425                   106.70                   109.05                   110.49                   111.21                   82.107                   98.728                   143.11                   147.86                   150.83                   152.21                   70.926                   82.025                   108.03                   110.47                   111.97                   112.72                   65.707                   74.688                   95.076                   96.952                   98.096                   98.688                   74.236                   86.409                   115.78                   118.62                   120.36                   121.22                   88.499                   105.51                   147.60                   151.87                   154.53                   155.78
12.000                   1.5000                   1.0000                   10000                    1000.0                   35.000                   76.641                   85.409                   105.28                   107.12                   108.24                   108.82                   89.217                   102.76                   136.20                   139.51                   141.55                   142.54                   94.605                   110.58                   152.55                   156.97                   159.72                   161.00                   78.725                   88.141                   109.62                   111.61                   112.83                   113.45                   83.692                   94.875                   120.69                   123.10                   124.57                   125.30                   96.279                   113.11                   158.21                   163.06                   166.09                   167.50                   84.025                   95.349                   121.88                   124.38                   125.91                   126.68                   78.216                   87.410                   108.26                   110.18                   111.36                   111.96                   87.827                   100.19                   130.07                   132.97                   134.76                   135.63                   103.93                   121.09                   163.59                   167.91                   170.61                   171.87
12.000                   1.5000                   1.0000                   10000                    1000.0                   40.000                   89.207                   98.083                   118.33                   120.21                   121.36                   121.95                   102.87                   116.52                   150.49                   153.87                   155.96                   156.96                   108.71                   124.80                   167.45                   171.96                   174.77                   176.08                   91.579                   101.11                   122.99                   125.03                   126.27                   126.91                   97.202                   108.54                   134.86                   137.32                   138.82                   139.57                   110.48                   127.43                   173.28                   178.24                   181.33                   182.75                   97.414                   108.87                   135.89                   138.45                   140.02                   140.80                   91.124                   100.45                   121.72                   123.69                   124.89                   125.50                   101.65                   114.09                   144.46                   147.42                   149.25                   150.14                   119.34                   136.51                   179.40                   183.78                   186.51                   187.77
12.000                   1.5000                   1.0000                   10000                    1000.0                   45.000                   102.19                   111.19                   131.85                   133.77                   134.95                   135.55                   116.63                   130.41                   164.98                   168.43                   170.56                   171.58                   122.81                   139.05                   182.42                   187.03                   189.90                   191.22                   104.85                   114.50                   136.83                   138.91                   140.19                   140.83                   111.00                   122.50                   149.34                   151.86                   153.40                   154.16                   124.67                   141.77                   188.44                   193.50                   196.66                   198.10                   111.06                   122.66                   150.21                   152.84                   154.44                   155.23                   104.45                   113.91                   135.62                   137.64                   138.87                   139.50                   115.63                   128.19                   159.07                   162.10                   163.97                   164.87                   134.45                   151.68                   194.98                   199.42                   202.19                   203.46
12.000                   1.5000                   1.0000                   10000                    1000.0                   50.000                   115.63                   124.75                   145.86                   147.83                   149.04                   149.65                   130.51                   144.44                   179.66                   183.19                   185.37                   186.40                   136.90                   153.32                   197.46                   202.17                   205.10                   206.43                   118.56                   128.35                   151.16                   153.30                   154.61                   155.27                   125.09                   136.76                   164.15                   166.73                   168.31                   169.08                   138.83                   156.13                   203.68                   208.85                   212.08                   213.53                   124.99                   136.74                   164.86                   167.55                   169.20                   170.00                   118.23                   127.83                   150.00                   152.07                   153.33                   153.97                   129.78                   142.47                   173.93                   177.03                   178.94                   179.86                   149.25                   166.56                   210.34                   214.84                   217.64                   218.92
12.000                   1.5000                   1.0000                   10000                    1000.0                   55.000                   129.06                   138.32                   159.87                   161.89                   163.13                   163.75                   144.38                   158.48                   194.34                   197.94                   200.17                   201.22                   150.98                   167.58                   212.51                   217.31                   220.30                   221.65                   132.26                   142.20                   165.49                   167.69                   169.03                   169.70                   139.19                   151.02                   178.96                   181.60                   183.22                   184.00                   152.99                   170.50                   218.93                   224.20                   227.50                   228.97                   138.92                   150.83                   179.51                   182.26                   183.95                   184.77                   132.01                   141.74                   164.38                   166.50                   167.80                   168.45                   143.93                   156.76                   188.79                   191.96                   193.91                   194.84                   164.05                   181.45                   225.70                   230.26                   233.10                   234.39
12.000                   1.5000                   1.0000                   10000                    1000.0                   60.000                   142.50                   151.88                   173.88                   175.95                   177.22                   177.85                   158.25                   172.52                   209.02                   212.70                   214.98                   216.03                   165.07                   181.85                   227.55                   232.45                   235.50                   236.87                   145.97                   156.05                   179.83                   182.07                   183.45                   184.13                   153.29                   165.27                   193.77                   196.47                   198.13                   198.92                   167.15                   184.87                   234.17                   239.56                   242.92                   244.41                   152.85                   164.91                   194.16                   196.98                   198.70                   199.53                   145.79                   155.66                   178.76                   180.93                   182.26                   182.92                   158.08                   171.05                   203.65                   206.89                   208.88                   209.83                   178.86                   196.33                   241.06                   245.68                   248.55                   249.85
12.000                   1.5000                   1.0000                   10000                    1000.0                   65.000                   155.96                   165.48                   187.93                   190.05                   191.35                   192.00                   172.14                   186.57                   223.73                   227.49                   229.81                   230.88                   179.15                   196.13                   242.61                   247.60                   250.71                   252.10                   159.70                   169.93                   194.20                   196.50                   197.91                   198.60                   167.41                   179.56                   208.62                   211.38                   213.07                   213.88                   181.31                   199.24                   249.43                   254.92                   258.35                   259.86                   166.80                   179.02                   208.85                   211.73                   213.49                   214.34                   159.60                   169.61                   193.18                   195.41                   196.76                   197.43                   172.23                   185.34                   218.53                   221.84                   223.88                   224.83                   193.62                   211.19                   256.41                   261.08                   263.99                   265.29
12.000                   1.5000                   1.0000                   10000                    1000.0                   70.000                   169.70                   179.41                   202.40                   204.58                   205.92                   206.57                   186.09                   200.77                   238.72                   242.57                   244.94                   246.03                   193.21                   210.46                   257.82                   262.91                   266.08                   267.48                   173.69                   184.12                   208.97                   211.33                   212.78                   213.49                   181.70                   194.09                   223.81                   226.65                   228.39                   229.21                   195.46                   213.67                   264.81                   270.42                   273.92                   275.44                   180.94                   193.39                   223.90                   226.85                   228.67                   229.52                   173.67                   183.88                   208.01                   210.29                   211.68                   212.37                   186.41                   199.73                   233.61                   237.00                   239.09                   240.06                   208.05                   225.80                   271.59                   276.33                   279.28                   280.59
12.000                   1.5000                   1.0000                   10000                    1000.0                   75.000                   183.43                   193.33                   216.87                   219.11                   220.48                   221.15                   200.05                   214.98                   253.71                   257.65                   260.08                   261.18                   207.27                   224.78                   273.02                   278.21                   281.44                   282.85                   187.68                   198.30                   223.74                   226.17                   227.65                   228.37                   195.99                   208.61                   239.01                   241.92                   243.70                   244.54                   209.60                   228.11                   280.19                   285.91                   289.48                   291.02                   195.08                   207.76                   238.95                   241.98                   243.84                   244.71                   187.74                   198.14                   222.83                   225.17                   226.60                   227.30                   200.58                   214.12                   248.70                   252.16                   254.30                   255.29                   222.47                   240.40                   286.77                   291.58                   294.57                   295.88