% Model:              batchmodel_COIL_N_12_COIL_kr_3_COIL_kh_2_FUNZ_freq_2000_FUNZ_I_eff_4000.mph
% Version:            COMSOL 6.0.0.318
% Date:               Feb 8 2022, 20:36
% Table:              Tabella 1 - GRIGLIA_T
% COIL_N                 COIL_kr                  COIL_kh                  FUNZ_freq                FUNZ_I_eff               Time (s)                 Temperatura (degC), Point: (0, 0)Temperatura (degC), Point: (15, 0)Temperatura (degC), Point: (25.641, 0)Temperatura (degC), Point: (27.821, 0)Temperatura (degC), Point: (29.128, 0)Temperatura (degC), Point: (29.99, 0)Temperatura (degC), Point: (0, 62.5)Temperatura (degC), Point: (15, 62.5)Temperatura (degC), Point: (25.641, 62.5)Temperatura (degC), Point: (27.821, 62.5)Temperatura (degC), Point: (29.128, 62.5)Temperatura (degC), Point: (29.99, 62.5)Temperatura (degC), Point: (0, 125)Temperatura (degC), Point: (15, 125)Temperatura (degC), Point: (25.641, 125)Temperatura (degC), Point: (27.821, 125)Temperatura (degC), Point: (29.128, 125)Temperatura (degC), Point: (29.99, 125)Temperatura (degC), Point: (0, 187.5)Temperatura (degC), Point: (15, 187.5)Temperatura (degC), Point: (25.641, 187.5)Temperatura (degC), Point: (27.821, 187.5)Temperatura (degC), Point: (29.128, 187.5)Temperatura (degC), Point: (29.99, 187.5)Temperatura (degC), Point: (0, 250)Temperatura (degC), Point: (15, 250)Temperatura (degC), Point: (25.641, 250)Temperatura (degC), Point: (27.821, 250)Temperatura (degC), Point: (29.128, 250)Temperatura (degC), Point: (29.99, 250)Temperatura (degC), Point: (0, 312.5)Temperatura (degC), Point: (15, 312.5)Temperatura (degC), Point: (25.641, 312.5)Temperatura (degC), Point: (27.821, 312.5)Temperatura (degC), Point: (29.128, 312.5)Temperatura (degC), Point: (29.99, 312.5)Temperatura (degC), Point: (0, 375)Temperatura (degC), Point: (15, 375)Temperatura (degC), Point: (25.641, 375)Temperatura (degC), Point: (27.821, 375)Temperatura (degC), Point: (29.128, 375)Temperatura (degC), Point: (29.99, 375)Temperatura (degC), Point: (0, 437.5)Temperatura (degC), Point: (15, 437.5)Temperatura (degC), Point: (25.641, 437.5)Temperatura (degC), Point: (27.821, 437.5)Temperatura (degC), Point: (29.128, 437.5)Temperatura (degC), Point: (29.99, 437.5)Temperatura (degC), Point: (0, 468.75)Temperatura (degC), Point: (15, 468.75)Temperatura (degC), Point: (25.641, 468.75)Temperatura (degC), Point: (27.821, 468.75)Temperatura (degC), Point: (29.128, 468.75)Temperatura (degC), Point: (29.99, 468.75)Temperatura (degC), Point: (0, 492.19)Temperatura (degC), Point: (15, 492.19)Temperatura (degC), Point: (25.641, 492.19)Temperatura (degC), Point: (27.821, 492.19)Temperatura (degC), Point: (29.128, 492.19)Temperatura (degC), Point: (29.99, 492.19)
12.000                   3.0000                   2.0000                   2000.0                   4000.0                   0.0000                   20.000                   20.000                   20.000                   20.000                   20.021                   20.122                   20.000                   20.000                   20.000                   20.000                   20.021                   20.124                   20.000                   20.000                   20.000                   20.000                   20.021                   20.125                   20.000                   20.000                   20.000                   20.000                   20.021                   20.122                   20.000                   20.000                   20.000                   20.000                   20.021                   20.122                   20.000                   20.000                   20.000                   20.000                   20.021                   20.125                   20.000                   20.000                   20.000                   20.000                   20.021                   20.124                   20.000                   20.000                   20.000                   20.000                   20.020                   20.120                   20.000                   20.000                   20.000                   20.000                   20.018                   20.116                   20.000                   20.000                   20.000                   20.000                   20.009                   20.089
12.000                   3.0000                   2.0000                   2000.0                   4000.0                   5.0000                   24.657                   37.921                   91.472                   111.66                   124.76                   130.16                   24.666                   37.981                   91.956                   112.40                   125.90                   131.22                   24.702                   38.097                   92.222                   112.72                   126.46                   131.80                   24.694                   38.099                   92.655                   113.46                   127.06                   132.40                   24.706                   38.155                   92.901                   113.58                   126.74                   131.97                   24.682                   38.010                   91.796                   112.19                   125.87                   131.19                   24.682                   38.067                   92.645                   113.40                   126.87                   132.24                   24.484                   37.258                   88.740                   108.12                   120.81                   125.94                   24.145                   36.007                   84.272                   102.44                   114.54                   119.37                   25.055                   35.162                   69.019                   80.922                   88.469                   91.891
12.000                   3.0000                   2.0000                   2000.0                   4000.0                   10.000                   49.326                   78.643                   152.68                   176.15                   191.15                   196.53                   49.381                   78.747                   152.52                   175.75                   190.68                   196.00                   49.610                   79.190                   153.31                   176.63                   191.61                   197.04                   49.475                   78.890                   152.30                   175.06                   189.46                   194.76                   49.611                   79.192                   153.14                   176.16                   190.94                   196.24                   49.485                   78.910                   152.50                   175.55                   190.38                   195.78                   49.420                   78.827                   152.52                   175.62                   190.31                   195.61                   48.156                   76.285                   146.67                   168.72                   182.80                   187.99                   45.670                   71.285                   135.07                   154.55                   166.74                   171.58                   44.722                   65.135                   110.82                   124.28                   132.84                   136.27
12.000                   3.0000                   2.0000                   2000.0                   4000.0                   15.000                   87.025                   125.64                   212.77                   239.21                   255.44                   261.02                   87.151                   125.80                   212.94                   239.39                   255.77                   261.36                   87.531                   126.27                   212.87                   239.04                   255.50                   261.18                   87.202                   125.78                   212.40                   238.42                   254.41                   259.95                   87.661                   126.68                   214.84                   241.47                   257.89                   263.41                   87.273                   125.83                   211.80                   237.63                   253.89                   259.52                   87.119                   125.68                   212.56                   238.98                   255.01                   260.52                   84.287                   121.29                   204.24                   229.18                   244.58                   250.00                   78.242                   111.56                   185.93                   207.83                   221.06                   226.04                   74.393                   100.87                   153.84                   168.82                   177.99                   181.54
12.000                   3.0000                   2.0000                   2000.0                   4000.0                   20.000                   130.30                   175.40                   273.60                   303.13                   320.85                   326.58                   130.54                   175.74                   274.49                   304.25                   322.29                   328.12                   130.99                   176.09                   273.48                   302.60                   320.73                   326.72                   130.54                   175.68                   274.18                   303.76                   321.68                   327.47                   131.43                   177.27                   278.12                   308.50                   326.64                   332.39                   130.55                   175.41                   272.06                   300.79                   318.61                   324.52                   130.40                   175.46                   274.12                   304.08                   322.12                   327.91                   125.72                   168.83                   262.26                   290.06                   306.78                   312.33                   115.59                   154.18                   237.63                   262.08                   276.61                   281.65                   108.68                   139.07                   197.20                   213.16                   222.57                   226.15
12.000                   3.0000                   2.0000                   2000.0                   4000.0                   25.000                   177.12                   226.46                   333.14                   365.14                   384.22                   390.08                   177.57                   227.16                   334.75                   367.20                   386.73                   392.82                   178.14                   227.69                   334.57                   366.68                   386.38                   392.64                   177.52                   227.08                   334.70                   367.18                   386.79                   392.79                   178.83                   229.20                   338.82                   371.13                   389.86                   395.86                   177.35                   226.44                   332.06                   363.71                   383.10                   389.28                   177.34                   226.89                   335.06                   368.07                   388.10                   394.15                   170.61                   217.79                   319.50                   349.59                   367.41                   373.08                   156.06                   197.98                   287.99                   314.39                   330.03                   335.16                   145.77                   178.31                   238.75                   254.85                   264.03                   267.59
12.000                   3.0000                   2.0000                   2000.0                   4000.0                   30.000                   226.25                   278.01                   390.44                   423.94                   444.04                   450.04                   227.04                   279.25                   392.85                   426.92                   447.44                   453.75                   227.83                   280.32                   395.32                   430.27                   451.27                   457.70                   226.88                   279.00                   392.40                   426.59                   447.28                   453.44                   228.54                   281.41                   395.43                   427.50                   445.45                   451.64                   226.47                   278.11                   390.82                   425.12                   445.78                   452.14                   226.78                   279.18                   394.39                   429.60                   451.10                   457.36                   217.75                   267.32                   374.81                   406.27                   424.73                   430.55                   198.57                   242.21                   336.20                   363.73                   380.20                   385.48                   184.67                   217.94                   278.09                   293.52                   302.03                   305.55
12.000                   3.0000                   2.0000                   2000.0                   4000.0                   35.000                   275.21                   328.69                   444.90                   478.74                   499.43                   505.69                   276.44                   330.58                   448.61                   482.55                   502.65                   509.11                   277.58                   332.42                   453.66                   490.70                   512.21                   518.66                   276.04                   329.68                   445.14                   478.99                   499.56                   505.83                   277.88                   332.11                   447.34                   478.04                   494.29                   500.44                   275.37                   328.79                   446.15                   481.92                   502.54                   508.76                   276.23                   330.82                   450.83                   486.79                   508.19                   514.52                   264.55                   315.52                   425.43                   456.65                   474.78                   480.68                   240.85                   285.35                   381.34                   409.10                   426.04                   431.55                   223.39                   256.89                   315.48                   329.55                   337.11                   340.52
12.000                   3.0000                   2.0000                   2000.0                   4000.0                   40.000                   323.07                   378.68                   501.41                   537.95                   559.96                   566.45                   324.78                   381.21                   506.10                   542.63                   563.85                   570.43                   326.36                   383.80                   512.61                   552.54                   575.29                   581.82                   324.02                   379.54                   500.57                   536.69                   558.27                   564.69                   325.84                   381.72                   502.10                   535.58                   553.47                   559.72                   323.13                   378.75                   502.96                   541.45                   563.18                   569.47                   324.61                   381.61                   508.21                   546.49                   568.66                   575.11                   310.09                   362.73                   477.31                   510.60                   529.85                   535.90                   281.96                   327.47                   426.41                   455.47                   473.24                   478.89                   260.60                   294.16                   353.57                   368.21                   376.49                   379.95
12.000                   3.0000                   2.0000                   2000.0                   4000.0                   45.000                   369.07                   427.87                   561.84                   604.68                   629.19                   635.84                   371.29                   430.94                   566.85                   610.26                   635.12                   641.82                   373.36                   434.12                   572.99                   617.17                   642.37                   649.13                   370.04                   428.53                   561.50                   604.21                   628.71                   635.37                   371.64                   430.25                   562.70                   605.06                   629.48                   636.07                   369.03                   427.89                   562.95                   606.29                   631.10                   637.82                   371.12                   431.23                   567.85                   611.12                   635.80                   642.46                   353.62                   408.90                   532.66                   571.68                   594.37                   600.67                   321.24                   368.44                   472.71                   504.89                   524.14                   529.79                   295.50                   329.27                   393.53                   411.60                   422.93                   426.67
12.000                   3.0000                   2.0000                   2000.0                   4000.0                   50.000                   414.20                   476.45                   620.48                   667.72                   694.10                   700.86                   416.75                   479.77                   625.27                   673.03                   699.74                   706.52                   419.11                   483.09                   630.46                   678.30                   705.03                   711.84                   415.10                   477.01                   620.46                   667.70                   694.14                   700.91                   416.42                   478.31                   621.35                   668.71                   695.55                   702.30                   414.05                   476.42                   621.52                   669.12                   695.83                   702.68                   416.46                   479.73                   625.22                   672.48                   698.87                   705.63                   396.36                   454.66                   587.82                   630.83                   655.43                   661.91                   359.92                   409.28                   520.15                   554.91                   575.33                   581.08                   329.82                   364.68                   433.22                   452.78                   464.96                   468.76
12.000                   3.0000                   2.0000                   2000.0                   4000.0                   55.000                   457.02                   521.94                   672.26                   723.20                   751.61                   758.51                   459.70                   525.24                   676.87                   728.51                   757.13                   764.06                   462.11                   528.35                   681.17                   733.19                   761.90                   768.83                   457.80                   522.46                   672.55                   723.58                   752.05                   758.97                   458.82                   523.40                   673.25                   724.30                   752.78                   759.70                   456.79                   521.94                   673.63                   725.38                   754.16                   761.14                   459.14                   524.74                   675.92                   727.12                   755.56                   762.45                   436.98                   497.91                   637.37                   682.59                   708.15                   714.65                   397.17                   448.91                   566.10                   603.04                   624.38                   630.20                   363.33                   399.72                   472.05                   492.41                   504.71                   508.49
12.000                   3.0000                   2.0000                   2000.0                   4000.0                   60.000                   498.27                   564.77                   717.60                   772.01                   802.82                   809.94                   500.97                   567.98                   722.41                   778.27                   809.51                   816.67                   503.31                   570.81                   726.52                   783.37                   814.88                   822.06                   498.96                   565.28                   718.05                   772.65                   803.55                   810.69                   499.73                   565.98                   718.63                   773.31                   804.22                   811.36                   498.02                   564.90                   719.62                   775.42                   806.81                   814.02                   500.10                   567.07                   720.90                   776.14                   807.18                   814.31                   476.23                   539.06                   680.93                   727.00                   753.05                   759.46                   433.62                   487.57                   609.80                   648.53                   670.64                   676.44                   396.72                   434.58                   509.93                   531.02                   543.62                   547.37
12.000                   3.0000                   2.0000                   2000.0                   4000.0                   65.000                   537.10                   604.12                   764.75                   824.44                   856.49                   863.39                   539.76                   607.26                   770.40                   831.61                   864.04                   870.95                   541.96                   609.86                   774.77                   837.01                   869.67                   876.58                   537.71                   604.63                   765.45                   825.36                   857.49                   864.40                   538.29                   605.15                   766.00                   825.99                   858.13                   865.04                   536.89                   604.43                   767.88                   829.17                   861.80                   868.78                   538.62                   606.04                   768.43                   829.18                   861.50                   868.41                   513.37                   576.83                   721.20                   771.17                   798.74                   805.15                   468.44                   523.69                   647.92                   687.32                   709.69                   715.36                   429.14                   468.18                   545.50                   566.98                   579.70                   583.37
12.000                   3.0000                   2.0000                   2000.0                   4000.0                   70.000                   574.73                   641.73                   812.81                   878.66                   911.38                   917.84                   577.32                   644.82                   819.60                   886.73                   919.63                   926.06                   579.37                   647.21                   824.45                   892.35                   925.35                   931.74                   575.28                   642.24                   813.79                   879.86                   912.63                   919.10                   575.70                   642.64                   814.36                   880.50                   913.26                   919.72                   574.59                   642.27                   817.25                   884.75                   917.95                   924.46                   575.94                   643.36                   817.23                   884.21                   917.16                   923.62                   549.47                   612.94                   759.84                   815.22                   844.83                   851.28                   502.46                   558.56                   683.27                   722.79                   745.17                   750.67                   461.08                   501.15                   579.94                   601.63                   614.38                   617.94
12.000                   3.0000                   2.0000                   2000.0                   4000.0                   75.000                   608.24                   674.83                   862.26                   928.29                   959.27                   964.81                   610.73                   677.93                   870.09                   937.09                   968.10                   973.55                   612.64                   680.23                   875.53                   943.12                   974.11                   979.47                   608.74                   675.36                   863.56                   929.79                   960.78                   966.31                   609.07                   675.69                   864.19                   930.47                   961.46                   966.99                   608.25                   675.73                   868.45                   936.08                   967.42                   972.94                   609.26                   676.48                   868.36                   935.65                   966.84                   972.34                   582.05                   644.96                   801.69                   860.39                   890.14                   896.16                   533.81                   589.31                   712.33                   752.71                   775.73                   781.16                   491.26                   531.62                   610.09                   631.68                   644.29                   647.68