% Model:              batchmodel_COIL_N_12_COIL_kr_3_COIL_kh_1_FUNZ_freq_6000_FUNZ_I_eff_2500.mph
% Version:            COMSOL 6.0.0.318
% Date:               Feb 8 2022, 19:53
% Table:              Tabella 1 - GRIGLIA_T
% COIL_N                 COIL_kr                  COIL_kh                  FUNZ_freq                FUNZ_I_eff               Time (s)                 Temperatura (degC), Point: (0, 0)Temperatura (degC), Point: (15, 0)Temperatura (degC), Point: (27.483, 0)Temperatura (degC), Point: (28.742, 0)Temperatura (degC), Point: (29.497, 0)Temperatura (degC), Point: (29.99, 0)Temperatura (degC), Point: (0, 62.5)Temperatura (degC), Point: (15, 62.5)Temperatura (degC), Point: (27.483, 62.5)Temperatura (degC), Point: (28.742, 62.5)Temperatura (degC), Point: (29.497, 62.5)Temperatura (degC), Point: (29.99, 62.5)Temperatura (degC), Point: (0, 125)Temperatura (degC), Point: (15, 125)Temperatura (degC), Point: (27.483, 125)Temperatura (degC), Point: (28.742, 125)Temperatura (degC), Point: (29.497, 125)Temperatura (degC), Point: (29.99, 125)Temperatura (degC), Point: (0, 187.5)Temperatura (degC), Point: (15, 187.5)Temperatura (degC), Point: (27.483, 187.5)Temperatura (degC), Point: (28.742, 187.5)Temperatura (degC), Point: (29.497, 187.5)Temperatura (degC), Point: (29.99, 187.5)Temperatura (degC), Point: (0, 250)Temperatura (degC), Point: (15, 250)Temperatura (degC), Point: (27.483, 250)Temperatura (degC), Point: (28.742, 250)Temperatura (degC), Point: (29.497, 250)Temperatura (degC), Point: (29.99, 250)Temperatura (degC), Point: (0, 312.5)Temperatura (degC), Point: (15, 312.5)Temperatura (degC), Point: (27.483, 312.5)Temperatura (degC), Point: (28.742, 312.5)Temperatura (degC), Point: (29.497, 312.5)Temperatura (degC), Point: (29.99, 312.5)Temperatura (degC), Point: (0, 375)Temperatura (degC), Point: (15, 375)Temperatura (degC), Point: (27.483, 375)Temperatura (degC), Point: (28.742, 375)Temperatura (degC), Point: (29.497, 375)Temperatura (degC), Point: (29.99, 375)Temperatura (degC), Point: (0, 437.5)Temperatura (degC), Point: (15, 437.5)Temperatura (degC), Point: (27.483, 437.5)Temperatura (degC), Point: (28.742, 437.5)Temperatura (degC), Point: (29.497, 437.5)Temperatura (degC), Point: (29.99, 437.5)Temperatura (degC), Point: (0, 468.75)Temperatura (degC), Point: (15, 468.75)Temperatura (degC), Point: (27.483, 468.75)Temperatura (degC), Point: (28.742, 468.75)Temperatura (degC), Point: (29.497, 468.75)Temperatura (degC), Point: (29.99, 468.75)Temperatura (degC), Point: (0, 492.19)Temperatura (degC), Point: (15, 492.19)Temperatura (degC), Point: (27.483, 492.19)Temperatura (degC), Point: (28.742, 492.19)Temperatura (degC), Point: (29.497, 492.19)Temperatura (degC), Point: (29.99, 492.19)
12.000                   3.0000                   1.0000                   6000.0                   2500.0                   0.0000                   20.000                   20.000                   20.000                   20.000                   20.018                   20.188                   20.000                   20.000                   20.000                   20.000                   20.020                   20.195                   20.000                   20.000                   20.000                   20.000                   20.020                   20.198                   20.000                   20.000                   20.000                   20.000                   20.019                   20.189                   20.000                   20.000                   20.000                   20.000                   20.019                   20.191                   20.000                   20.000                   20.000                   20.000                   20.020                   20.198                   20.000                   20.000                   20.000                   20.000                   20.019                   20.191                   20.000                   20.000                   20.000                   20.000                   20.018                   20.186                   20.000                   20.000                   20.000                   20.000                   20.017                   20.185                   20.000                   20.000                   20.000                   20.000                   20.013                   20.165
12.000                   3.0000                   1.0000                   6000.0                   2500.0                   5.0000                   23.252                   35.050                   91.676                   101.45                   107.78                   110.54                   23.153                   34.753                   93.443                   103.87                   110.55                   113.43                   23.220                   35.017                   94.110                   104.60                   111.35                   114.26                   23.242                   35.046                   92.508                   102.46                   108.88                   111.66                   23.175                   34.877                   94.079                   104.48                   111.10                   113.94                   23.128                   34.731                   94.433                   105.13                   111.97                   114.90                   23.221                   35.032                   93.569                   103.80                   110.36                   113.19                   23.003                   34.066                   89.543                   99.337                   105.62                   108.36                   22.849                   33.294                   86.234                   95.706                   101.81                   104.49                   25.040                   35.830                   83.681                   91.800                   96.937                   99.234
12.000                   3.0000                   1.0000                   6000.0                   2500.0                   10.000                   42.694                   67.282                   140.49                   151.68                   158.78                   161.72                   42.738                   67.831                   143.54                   155.08                   162.38                   165.39                   42.984                   68.274                   144.80                   156.54                   163.96                   167.01                   42.741                   67.433                   141.06                   152.33                   159.45                   162.40                   42.738                   67.709                   142.15                   153.40                   160.54                   163.49                   42.808                   68.172                   145.08                   156.82                   164.25                   167.31                   42.800                   67.716                   142.03                   153.33                   160.48                   163.44                   41.599                   65.372                   136.81                   147.66                   154.54                   157.41                   40.645                   63.294                   132.15                   142.67                   149.32                   152.11                   42.544                   64.060                   123.19                   131.56                   136.86                   139.19
12.000                   3.0000                   1.0000                   6000.0                   2500.0                   15.000                   73.039                   104.38                   187.87                   200.06                   207.68                   210.72                   73.520                   105.65                   191.74                   204.35                   212.24                   215.36                   73.935                   106.32                   193.44                   206.24                   214.25                   217.41                   73.162                   104.62                   188.50                   200.76                   208.42                   211.47                   73.343                   105.15                   189.77                   202.12                   209.86                   212.93                   73.802                   106.33                   193.74                   206.58                   214.61                   217.78                   73.315                   105.01                   189.50                   201.86                   209.59                   212.66                   70.915                   101.37                   182.52                   194.33                   201.72                   204.69                   68.554                   97.489                   174.97                   186.27                   193.34                   196.21                   68.863                   95.543                   160.80                   169.67                   175.21                   177.56
12.000                   3.0000                   1.0000                   6000.0                   2500.0                   20.000                   107.95                   143.60                   235.08                   248.24                   256.41                   259.55                   108.88                   145.44                   239.69                   253.35                   261.84                   265.08                   109.45                   146.30                   241.67                   255.51                   264.12                   267.40                   108.14                   143.92                   235.86                   249.10                   257.33                   260.49                   108.49                   144.60                   237.36                   250.77                   259.11                   262.30                   109.37                   146.37                   242.04                   255.94                   264.58                   267.87                   108.33                   144.32                   236.88                   250.27                   258.59                   261.78                   104.65                   139.29                   227.89                   240.62                   248.53                   251.60                   100.49                   133.20                   216.97                   229.00                   236.50                   239.45                   98.874                   128.47                   197.83                   207.12                   212.88                   215.26
12.000                   3.0000                   1.0000                   6000.0                   2500.0                   25.000                   146.37                   184.91                   283.76                   298.07                   306.92                   310.19                   147.68                   187.14                   288.94                   303.79                   312.98                   316.36                   148.36                   188.14                   291.09                   306.14                   315.45                   318.85                   146.62                   185.29                   284.71                   299.12                   308.02                   311.32                   147.08                   186.05                   286.32                   300.91                   309.94                   313.27                   148.30                   188.20                   291.45                   306.55                   315.89                   319.31                   146.74                   185.58                   285.55                   300.09                   309.09                   312.41                   141.67                   178.97                   274.25                   288.00                   296.53                   299.72                   135.25                   170.18                   259.26                   272.10                   280.08                   283.13                   131.50                   162.59                   234.96                   244.64                   250.63                   253.05
12.000                   3.0000                   1.0000                   6000.0                   2500.0                   30.000                   187.44                   228.34                   335.55                   351.35                   361.07                   364.52                   188.97                   230.78                   341.05                   357.40                   367.45                   370.99                   189.71                   231.87                   343.34                   359.91                   370.08                   373.66                   187.71                   228.73                   336.45                   352.34                   362.11                   365.58                   188.19                   229.51                   338.12                   354.19                   364.06                   367.56                   189.61                   231.84                   343.49                   360.10                   370.29                   373.87                   187.62                   228.77                   336.92                   352.91                   362.74                   366.23                   180.97                   220.34                   322.95                   338.00                   347.29                   350.64                   171.83                   208.29                   302.99                   316.83                   325.41                   328.58                   165.73                   197.65                   272.81                   282.94                   289.21                   291.68
12.000                   3.0000                   1.0000                   6000.0                   2500.0                   35.000                   228.50                   271.76                   387.33                   404.63                   415.21                   418.85                   230.26                   274.43                   393.15                   411.01                   421.92                   425.63                   231.07                   275.59                   395.58                   413.68                   424.71                   428.46                   228.79                   272.17                   388.18                   405.57                   416.20                   419.84                   229.31                   272.97                   389.92                   407.46                   418.18                   421.85                   230.92                   275.47                   395.53                   413.64                   424.68                   428.43                   228.51                   271.97                   388.29                   405.73                   416.39                   420.04                   220.28                   261.71                   371.65                   388.00                   398.05                   401.56                   208.42                   246.40                   346.72                   361.57                   370.74                   374.03                   199.96                   232.71                   310.66                   321.25                   327.80                   330.31
12.000                   3.0000                   1.0000                   6000.0                   2500.0                   40.000                   269.67                   315.49                   439.53                   458.30                   469.69                   473.45                   271.56                   318.30                   445.58                   464.92                   476.64                   480.47                   272.42                   319.54                   448.18                   467.77                   479.64                   483.51                   269.95                   315.89                   440.33                   459.17                   470.62                   474.38                   270.48                   316.68                   442.06                   461.06                   472.58                   476.37                   272.19                   319.29                   447.88                   467.46                   479.32                   483.19                   269.40                   315.34                   439.87                   458.71                   470.14                   473.91                   259.57                   303.30                   420.86                   438.51                   449.28                   452.90                   244.87                   284.65                   391.08                   406.98                   416.74                   420.12                   234.08                   267.86                   348.95                   360.04                   366.88                   369.44
12.000                   3.0000                   1.0000                   6000.0                   2500.0                   45.000                   310.84                   359.23                   491.74                   511.97                   524.17                   528.05                   312.86                   362.17                   498.01                   518.84                   531.37                   535.32                   313.78                   363.48                   500.77                   521.88                   534.56                   538.55                   311.12                   359.61                   492.48                   512.79                   525.04                   528.93                   311.65                   360.40                   494.21                   514.66                   526.98                   530.89                   313.45                   363.11                   500.22                   521.29                   533.95                   537.94                   310.28                   358.72                   491.44                   511.69                   523.90                   527.78                   298.86                   344.89                   470.08                   489.03                   500.52                   504.25                   281.33                   322.91                   435.46                   452.39                   462.75                   466.22                   268.19                   303.01                   387.24                   398.83                   405.97                   408.57
12.000                   3.0000                   1.0000                   6000.0                   2500.0                   50.000                   349.66                   400.32                   540.28                   561.95                   574.99                   578.97                   351.73                   403.27                   546.41                   568.68                   582.05                   586.10                   352.66                   404.58                   549.07                   571.58                   585.09                   589.17                   349.93                   400.64                   540.70                   562.40                   575.43                   579.41                   350.48                   401.49                   542.71                   564.62                   577.79                   581.80                   352.27                   404.14                   548.47                   570.96                   584.47                   588.55                   348.91                   399.58                   539.68                   561.38                   574.43                   578.41                   336.34                   384.58                   516.94                   537.26                   549.52                   553.34                   316.40                   359.80                   478.34                   496.35                   507.31                   510.85                   301.10                   336.98                   424.25                   436.31                   443.72                   446.34
12.000                   3.0000                   1.0000                   6000.0                   2500.0                   55.000                   388.23                   441.13                   588.41                   611.54                   625.41                   629.50                   390.33                   444.07                   594.38                   618.07                   632.29                   636.44                   391.27                   445.37                   596.90                   620.81                   635.14                   639.31                   388.49                   441.39                   588.49                   611.58                   625.39                   629.45                   389.06                   442.29                   590.81                   614.19                   628.21                   632.31                   390.82                   444.87                   596.28                   620.18                   634.54                   638.71                   387.29                   440.17                   587.55                   610.72                   624.61                   628.69                   373.62                   424.06                   563.56                   585.25                   598.27                   602.18                   351.31                   396.53                   521.07                   540.15                   551.71                   555.32                   333.89                   370.83                   461.11                   473.64                   481.32                   483.96
12.000                   3.0000                   1.0000                   6000.0                   2500.0                   60.000                   426.81                   481.93                   636.55                   661.13                   675.84                   680.02                   428.93                   484.86                   642.35                   667.47                   682.53                   686.77                   429.88                   486.16                   644.73                   670.04                   685.19                   689.45                   427.05                   482.14                   636.29                   660.75                   675.34                   679.50                   427.63                   483.09                   638.91                   663.75                   678.63                   682.83                   429.37                   485.59                   644.08                   669.40                   684.61                   688.87                   425.67                   480.76                   635.42                   660.06                   674.79                   678.96                   410.90                   463.53                   610.17                   633.23                   647.02                   651.01                   386.22                   433.27                   563.79                   583.95                   596.12                   599.79                   366.67                   404.67                   497.98                   510.98                   518.93                   521.59
12.000                   3.0000                   1.0000                   6000.0                   2500.0                   65.000                   465.38                   522.73                   684.69                   710.71                   726.26                   730.54                   467.53                   525.66                   690.32                   716.87                   732.77                   737.11                   468.49                   526.95                   692.56                   719.27                   735.24                   739.59                   465.61                   522.88                   684.08                   709.93                   725.30                   729.54                   466.21                   523.89                   687.01                   713.32                   729.05                   733.34                   467.92                   526.32                   691.89                   718.62                   734.68                   739.03                   464.04                   521.35                   683.29                   709.40                   724.97                   729.24                   448.19                   503.01                   656.78                   681.22                   695.77                   699.85                   421.13                   470.01                   606.51                   627.74                   640.52                   644.26                   399.46                   438.52                   534.84                   548.31                   556.53                   559.21
12.000                   3.0000                   1.0000                   6000.0                   2500.0                   70.000                   499.11                   556.95                   724.55                   752.50                   768.80                   773.07                   501.32                   559.97                   731.20                   759.79                   776.45                   780.78                   502.29                   561.29                   733.88                   762.68                   779.44                   783.76                   499.32                   557.02                   723.46                   751.18                   767.25                   771.49                   500.00                   558.20                   727.58                   755.90                   772.42                   776.70                   501.68                   560.63                   733.14                   761.97                   778.81                   783.16                   497.65                   555.46                   723.10                   751.16                   767.51                   771.78                   481.04                   536.43                   693.47                   719.53                   734.82                   738.92                   452.48                   502.14                   640.82                   662.75                   675.97                   679.71                   429.52                   469.31                   567.30                   581.05                   589.41                   592.05
12.000                   3.0000                   1.0000                   6000.0                   2500.0                   75.000                   531.05                   588.71                   761.33                   791.38                   808.40                   812.61                   533.30                   591.85                   769.43                   800.29                   817.68                   821.95                   534.30                   593.23                   772.77                   803.93                   821.44                   825.72                   531.21                   588.68                   759.71                   789.46                   806.21                   810.41                   532.00                   590.09                   765.35                   795.88                   813.15                   817.39                   533.65                   592.54                   771.95                   803.13                   820.72                   825.03                   529.48                   587.16                   759.88                   790.09                   807.19                   811.43                   512.23                   567.58                   726.45                   754.24                   770.23                   774.33                   482.49                   532.56                   671.99                   694.48                   708.06                   711.79                   458.56                   498.96                   598.11                   612.07                   620.52                   623.12