% Model:              batchmodel_COIL_N_12_COIL_kr_2.25_COIL_kh_1_FUNZ_freq_10000_FUNZ_I_eff_4000.mph
% Version:            COMSOL 6.0.0.318
% Date:               Feb 8 2022, 19:25
% Table:              Tabella 1 - GRIGLIA_T
% COIL_N                 COIL_kr                  COIL_kh                  FUNZ_freq                FUNZ_I_eff               Time (s)                 Temperatura (degC), Point: (0, 0)Temperatura (degC), Point: (15, 0)Temperatura (degC), Point: (28.051, 0)Temperatura (degC), Point: (29.025, 0)Temperatura (degC), Point: (29.61, 0)Temperatura (degC), Point: (29.99, 0)Temperatura (degC), Point: (0, 62.5)Temperatura (degC), Point: (15, 62.5)Temperatura (degC), Point: (28.051, 62.5)Temperatura (degC), Point: (29.025, 62.5)Temperatura (degC), Point: (29.61, 62.5)Temperatura (degC), Point: (29.99, 62.5)Temperatura (degC), Point: (0, 125)Temperatura (degC), Point: (15, 125)Temperatura (degC), Point: (28.051, 125)Temperatura (degC), Point: (29.025, 125)Temperatura (degC), Point: (29.61, 125)Temperatura (degC), Point: (29.99, 125)Temperatura (degC), Point: (0, 187.5)Temperatura (degC), Point: (15, 187.5)Temperatura (degC), Point: (28.051, 187.5)Temperatura (degC), Point: (29.025, 187.5)Temperatura (degC), Point: (29.61, 187.5)Temperatura (degC), Point: (29.99, 187.5)Temperatura (degC), Point: (0, 250)Temperatura (degC), Point: (15, 250)Temperatura (degC), Point: (28.051, 250)Temperatura (degC), Point: (29.025, 250)Temperatura (degC), Point: (29.61, 250)Temperatura (degC), Point: (29.99, 250)Temperatura (degC), Point: (0, 312.5)Temperatura (degC), Point: (15, 312.5)Temperatura (degC), Point: (28.051, 312.5)Temperatura (degC), Point: (29.025, 312.5)Temperatura (degC), Point: (29.61, 312.5)Temperatura (degC), Point: (29.99, 312.5)Temperatura (degC), Point: (0, 375)Temperatura (degC), Point: (15, 375)Temperatura (degC), Point: (28.051, 375)Temperatura (degC), Point: (29.025, 375)Temperatura (degC), Point: (29.61, 375)Temperatura (degC), Point: (29.99, 375)Temperatura (degC), Point: (0, 437.5)Temperatura (degC), Point: (15, 437.5)Temperatura (degC), Point: (28.051, 437.5)Temperatura (degC), Point: (29.025, 437.5)Temperatura (degC), Point: (29.61, 437.5)Temperatura (degC), Point: (29.99, 437.5)Temperatura (degC), Point: (0, 468.75)Temperatura (degC), Point: (15, 468.75)Temperatura (degC), Point: (28.051, 468.75)Temperatura (degC), Point: (29.025, 468.75)Temperatura (degC), Point: (29.61, 468.75)Temperatura (degC), Point: (29.99, 468.75)Temperatura (degC), Point: (0, 492.19)Temperatura (degC), Point: (15, 492.19)Temperatura (degC), Point: (28.051, 492.19)Temperatura (degC), Point: (29.025, 492.19)Temperatura (degC), Point: (29.61, 492.19)Temperatura (degC), Point: (29.99, 492.19)
12.000                   2.2500                   1.0000                   10000                    4000.0                   0.0000                   20.000                   20.000                   20.000                   20.000                   20.095                   20.480                   20.000                   20.000                   20.000                   20.000                   20.127                   20.569                   20.000                   20.000                   20.000                   20.000                   20.142                   20.610                   20.000                   20.000                   20.000                   20.000                   20.100                   20.493                   20.000                   20.000                   20.000                   20.000                   20.111                   20.522                   20.000                   20.000                   20.000                   20.000                   20.148                   20.624                   20.000                   20.000                   20.000                   20.000                   20.113                   20.527                   20.000                   20.000                   20.000                   20.000                   20.097                   20.485                   20.000                   20.000                   20.000                   20.000                   20.120                   20.549                   20.000                   20.000                   20.000                   20.000                   20.146                   20.621
12.000                   2.2500                   1.0000                   10000                    4000.0                   5.0000                   28.780                   64.304                   285.67                   314.43                   331.05                   336.51                   29.053                   66.048                   293.42                   327.06                   347.25                   353.85                   29.615                   69.235                   316.47                   354.86                   377.81                   384.71                   28.770                   64.600                   283.40                   311.38                   327.96                   333.43                   29.068                   65.896                   291.27                   321.33                   338.80                   345.03                   29.724                   69.991                   322.88                   361.93                   384.98                   392.14                   28.793                   64.815                   292.08                   323.29                   341.71                   347.86                   28.672                   63.851                   283.45                   313.58                   331.28                   337.08                   29.197                   66.162                   302.30                   335.67                   355.70                   361.70                   50.062                   92.181                   322.97                   356.91                   376.75                   383.06
12.000                   2.2500                   1.0000                   10000                    4000.0                   10.000                   90.529                   171.08                   480.96                   521.22                   544.78                   551.87                   92.693                   177.33                   517.42                   567.19                   595.21                   603.15                   95.814                   184.48                   542.74                   595.07                   624.95                   633.49                   90.494                   171.41                   486.52                   528.17                   552.34                   559.58                   92.365                   175.51                   503.52                   549.40                   575.41                   582.60                   96.332                   185.91                   552.73                   607.68                   638.68                   647.36                   91.362                   173.89                   495.40                   539.28                   564.05                   571.50                   89.781                   169.35                   473.40                   512.95                   536.00                   543.08                   93.901                   177.08                   503.20                   546.58                   571.39                   578.96                   128.20                   213.75                   526.73                   569.57                   593.77                   600.85
12.000                   2.2500                   1.0000                   10000                    4000.0                   15.000                   185.16                   287.26                   658.55                   712.68                   742.70                   750.88                   189.85                   297.80                   706.72                   772.64                   809.79                   819.41                   194.54                   306.02                   737.31                   813.02                   853.42                   863.56                   185.15                   288.05                   663.95                   719.12                   749.80                   758.10                   188.58                   294.06                   682.95                   741.31                   774.09                   782.93                   195.50                   308.00                   747.90                   827.09                   868.37                   878.63                   187.06                   292.01                   680.18                   738.60                   771.49                   780.33                   183.41                   284.50                   653.15                   707.08                   736.93                   745.07                   190.46                   294.62                   680.28                   738.31                   770.93                   779.69                   220.42                   326.22                   685.54                   736.68                   765.57                   773.36
12.000                   2.2500                   1.0000                   10000                    4000.0                   20.000                   283.05                   396.02                   793.55                   857.71                   890.42                   898.37                   289.96                   410.18                   864.47                   934.69                   967.66                   975.12                   295.49                   419.86                   910.20                   975.53                   1004.3                   1010.5                   283.17                   397.20                   803.12                   868.94                   902.13                   910.12                   287.59                   404.33                   830.38                   898.94                   932.50                   940.33                   296.84                   422.81                   1049.2                   1120.6                   1139.1                   1140.9                   285.89                   402.49                   830.07                   899.14                   932.93                   940.80                   280.63                   393.09                   791.60                   856.69                   889.93                   898.01                   288.65                   403.76                   840.38                   915.27                   951.34                   959.65                   313.12                   428.62                   816.92                   879.74                   911.53                   919.09
12.000                   2.2500                   1.0000                   10000                    4000.0                   25.000                   374.74                   489.49                   904.41                   963.44                   991.40                   997.58                   383.63                   505.27                   932.05                   984.13                   1008.4                   1013.6                   390.23                   519.31                   1013.3                   1056.3                   1069.9                   1071.4                   375.09                   490.97                   913.33                   972.60                   1000.4                   1006.4                   380.04                   498.21                   934.56                   994.11                   1020.9                   1026.4                   392.24                   526.57                   1136.4                   1163.7                   1169.3                   1168.5                   378.43                   496.68                   931.68                   991.01                   1018.0                   1023.6                   372.11                   486.80                   900.37                   959.21                   987.18                   993.39                   380.29                   499.18                   929.76                   976.68                   997.56                   1002.0                   400.01                   516.46                   887.58                   932.48                   954.41                   959.38
12.000                   2.2500                   1.0000                   10000                    4000.0                   30.000                   455.40                   567.23                   940.24                   978.79                   997.09                   1001.0                   465.75                   583.21                   956.01                   986.76                   1000.6                   1003.4                   473.76                   600.71                   1059.3                   1086.8                   1094.0                   1093.9                   455.97                   569.24                   957.52                   993.92                   1010.0                   1013.2                   461.06                   576.37                   1058.5                   1099.0                   1109.6                   1110.1                   476.65                   610.70                   1124.5                   1142.2                   1145.4                   1144.2                   459.67                   574.89                   1042.2                   1085.1                   1097.1                   1097.9                   452.81                   565.03                   954.67                   994.39                   1012.3                   1016.0                   461.56                   579.98                   1000.1                   1034.0                   1046.0                   1047.6                   476.81                   589.39                   930.85                   964.69                   981.35                   985.02
12.000                   2.2500                   1.0000                   10000                    4000.0                   35.000                   524.21                   628.35                   944.73                   972.60                   986.30                   989.22                   535.90                   645.95                   988.26                   1011.0                   1020.1                   1021.5                   544.86                   663.73                   1075.9                   1096.0                   1100.8                   1100.2                   525.14                   632.16                   989.47                   1017.1                   1027.9                   1029.6                   530.43                   640.41                   1087.3                   1111.7                   1117.3                   1116.7                   548.35                   674.24                   1118.3                   1132.0                   1134.2                   1132.9                   529.23                   639.03                   1079.6                   1104.9                   1110.9                   1110.5                   521.89                   628.50                   991.40                   1020.4                   1031.6                   1033.3                   531.64                   644.97                   1054.6                   1079.9                   1086.9                   1086.8                   543.36                   648.97                   981.41                   1007.8                   1019.2                   1021.1
12.000                   2.2500                   1.0000                   10000                    4000.0                   40.000                   581.01                   675.45                   958.14                   980.49                   991.47                   993.70                   593.58                   695.64                   1036.5                   1055.7                   1061.4                   1061.3                   602.36                   711.65                   1084.0                   1098.9                   1102.0                   1101.0                   582.38                   680.92                   1014.2                   1037.4                   1045.6                   1046.3                   587.84                   690.35                   1084.8                   1103.4                   1107.5                   1106.6                   605.88                   721.51                   1110.6                   1121.9                   1123.6                   1122.2                   586.89                   689.40                   1080.8                   1099.5                   1103.8                   1103.0                   579.39                   678.44                   1026.6                   1050.7                   1058.5                   1059.0                   589.54                   695.36                   1079.0                   1097.2                   1101.3                   1100.6                   598.96                   699.09                   1061.7                   1080.2                   1084.8                   1084.2
12.000                   2.2500                   1.0000                   10000                    4000.0                   45.000                   628.34                   713.45                   974.40                   992.56                   1001.2                   1002.8                   641.44                   736.83                   1069.2                   1083.3                   1086.4                   1085.5                   649.57                   751.64                   1091.8                   1103.0                   1104.9                   1103.7                   630.06                   720.10                   1034.6                   1054.3                   1060.5                   1060.6                   635.62                   730.62                   1083.9                   1098.5                   1101.4                   1100.4                   652.82                   760.89                   1107.3                   1116.7                   1117.9                   1116.4                   634.94                   730.17                   1082.4                   1096.8                   1099.8                   1098.8                   627.51                   718.83                   1049.4                   1068.9                   1074.3                   1074.1                   637.64                   736.22                   1088.9                   1102.4                   1105.0                   1103.9                   646.24                   744.39                   1108.6                   1119.4                   1120.8                   1119.4
12.000                   2.2500                   1.0000                   10000                    4000.0                   50.000                   667.07                   745.32                   993.07                   1007.9                   1014.4                   1015.2                   680.21                   775.11                   1086.3                   1096.6                   1098.2                   1097.0                   687.43                   790.29                   1100.1                   1108.7                   1109.8                   1108.3                   669.01                   753.43                   1051.2                   1067.5                   1071.9                   1071.5                   674.49                   766.14                   1086.1                   1097.7                   1099.8                   1098.6                   690.23                   798.72                   1109.2                   1117.0                   1117.6                   1116.1                   674.08                   766.19                   1086.2                   1097.5                   1099.5                   1098.3                   666.92                   752.81                   1062.3                   1077.7                   1081.6                   1080.9                   676.68                   773.01                   1093.8                   1104.1                   1105.7                   1104.4                   685.56                   792.79                   1135.3                   1142.0                   1142.1                   1140.3
12.000                   2.2500                   1.0000                   10000                    4000.0                   55.000                   697.91                   776.74                   1015.8                   1028.3                   1032.9                   1033.0                   710.37                   813.88                   1096.5                   1104.3                   1105.1                   1103.7                   716.54                   829.01                   1107.8                   1114.5                   1114.9                   1113.3                   699.91                   786.10                   1062.8                   1075.7                   1078.8                   1077.9                   705.03                   801.44                   1089.0                   1098.2                   1099.6                   1098.3                   718.86                   836.17                   1113.8                   1120.0                   1120.2                   1118.5                   704.85                   802.08                   1090.2                   1099.1                   1100.4                   1099.0                   698.27                   785.68                   1069.5                   1081.7                   1084.4                   1083.4                   707.28                   809.74                   1097.4                   1105.5                   1106.4                   1105.0                   717.24                   845.24                   1154.2                   1158.5                   1157.9                   1155.9
12.000                   2.2500                   1.0000                   10000                    4000.0                   60.000                   719.12                   810.21                   1038.9                   1049.6                   1052.8                   1052.3                   732.49                   850.32                   1103.2                   1109.4                   1109.7                   1108.1                   739.06                   865.13                   1114.4                   1119.7                   1119.7                   1118.0                   721.13                   819.46                   1070.5                   1080.6                   1082.6                   1081.6                   726.48                   835.66                   1092.2                   1099.7                   1100.5                   1099.0                   741.53                   871.30                   1119.5                   1124.4                   1124.2                   1122.5                   726.46                   836.67                   1093.8                   1101.1                   1101.8                   1100.3                   719.66                   818.52                   1073.7                   1083.6                   1085.4                   1084.3                   729.40                   845.15                   1101.0                   1107.6                   1108.0                   1106.4                   745.45                   895.59                   1168.7                   1171.8                   1170.8                   1168.7
12.000                   2.2500                   1.0000                   10000                    4000.0                   65.000                   741.13                   843.60                   1059.6                   1068.5                   1070.3                   1069.2                   757.26                   885.69                   1109.8                   1114.5                   1114.3                   1112.6                   764.89                   900.18                   1121.1                   1125.1                   1124.6                   1122.8                   743.50                   852.52                   1078.0                   1085.7                   1086.8                   1085.5                   749.81                   869.22                   1095.8                   1101.7                   1102.0                   1100.4                   767.69                   905.50                   1125.3                   1129.1                   1128.6                   1126.7                   749.97                   870.52                   1097.8                   1103.5                   1103.7                   1102.2                   741.95                   851.01                   1078.4                   1086.1                   1087.1                   1085.8                   754.15                   879.98                   1105.2                   1110.2                   1110.2                   1108.5                   779.67                   944.17                   1183.2                   1185.3                   1183.8                   1181.6
12.000                   2.2500                   1.0000                   10000                    4000.0                   70.000                   765.49                   876.71                   1073.2                   1080.0                   1080.9                   1079.6                   789.73                   917.96                   1116.0                   1119.5                   1118.9                   1117.1                   800.32                   932.16                   1127.6                   1130.7                   1129.8                   1127.9                   769.22                   884.74                   1085.4                   1091.3                   1091.7                   1090.2                   778.61                   900.86                   1101.0                   1105.5                   1105.4                   1103.7                   803.97                   937.02                   1131.7                   1134.6                   1133.7                   1131.8                   778.99                   902.22                   1103.0                   1107.4                   1107.2                   1105.5                   766.82                   882.50                   1084.3                   1090.3                   1090.8                   1089.3                   786.52                   913.18                   1111.0                   1114.8                   1114.3                   1112.6                   831.33                   987.62                   1197.8                   1199.0                   1197.3                   1195.0
12.000                   2.2500                   1.0000                   10000                    4000.0                   75.000                   794.59                   908.78                   1085.0                   1090.0                   1090.1                   1088.6                   825.37                   948.73                   1122.2                   1124.8                   1123.8                   1121.9                   838.17                   962.63                   1134.3                   1136.4                   1135.3                   1133.3                   799.38                   915.95                   1092.7                   1097.0                   1096.8                   1095.2                   811.23                   931.33                   1106.4                   1109.8                   1109.3                   1107.5                   842.39                   967.13                   1138.3                   1140.4                   1139.2                   1137.2                   811.79                   932.70                   1108.4                   1111.7                   1111.1                   1109.3                   796.22                   913.09                   1090.5                   1095.0                   1094.9                   1093.3                   822.77                   945.31                   1117.3                   1120.0                   1119.1                   1117.2                   883.46                   1028.4                   1212.5                   1213.1                   1211.2                   1208.7