% Model:              batchmodel_COIL_N_12_COIL_kr_1.5_COIL_kh_1_FUNZ_freq_2000_FUNZ_I_eff_4000.mph
% Version:            COMSOL 6.0.0.318
% Date:               Feb 8 2022, 18:28
% Table:              Tabella 1 - GRIGLIA_T
% COIL_N                 COIL_kr                  COIL_kh                  FUNZ_freq                FUNZ_I_eff               Time (s)                 Temperatura (degC), Point: (0, 0)Temperatura (degC), Point: (15, 0)Temperatura (degC), Point: (25.641, 0)Temperatura (degC), Point: (27.821, 0)Temperatura (degC), Point: (29.128, 0)Temperatura (degC), Point: (29.99, 0)Temperatura (degC), Point: (0, 62.5)Temperatura (degC), Point: (15, 62.5)Temperatura (degC), Point: (25.641, 62.5)Temperatura (degC), Point: (27.821, 62.5)Temperatura (degC), Point: (29.128, 62.5)Temperatura (degC), Point: (29.99, 62.5)Temperatura (degC), Point: (0, 125)Temperatura (degC), Point: (15, 125)Temperatura (degC), Point: (25.641, 125)Temperatura (degC), Point: (27.821, 125)Temperatura (degC), Point: (29.128, 125)Temperatura (degC), Point: (29.99, 125)Temperatura (degC), Point: (0, 187.5)Temperatura (degC), Point: (15, 187.5)Temperatura (degC), Point: (25.641, 187.5)Temperatura (degC), Point: (27.821, 187.5)Temperatura (degC), Point: (29.128, 187.5)Temperatura (degC), Point: (29.99, 187.5)Temperatura (degC), Point: (0, 250)Temperatura (degC), Point: (15, 250)Temperatura (degC), Point: (25.641, 250)Temperatura (degC), Point: (27.821, 250)Temperatura (degC), Point: (29.128, 250)Temperatura (degC), Point: (29.99, 250)Temperatura (degC), Point: (0, 312.5)Temperatura (degC), Point: (15, 312.5)Temperatura (degC), Point: (25.641, 312.5)Temperatura (degC), Point: (27.821, 312.5)Temperatura (degC), Point: (29.128, 312.5)Temperatura (degC), Point: (29.99, 312.5)Temperatura (degC), Point: (0, 375)Temperatura (degC), Point: (15, 375)Temperatura (degC), Point: (25.641, 375)Temperatura (degC), Point: (27.821, 375)Temperatura (degC), Point: (29.128, 375)Temperatura (degC), Point: (29.99, 375)Temperatura (degC), Point: (0, 437.5)Temperatura (degC), Point: (15, 437.5)Temperatura (degC), Point: (25.641, 437.5)Temperatura (degC), Point: (27.821, 437.5)Temperatura (degC), Point: (29.128, 437.5)Temperatura (degC), Point: (29.99, 437.5)Temperatura (degC), Point: (0, 468.75)Temperatura (degC), Point: (15, 468.75)Temperatura (degC), Point: (25.641, 468.75)Temperatura (degC), Point: (27.821, 468.75)Temperatura (degC), Point: (29.128, 468.75)Temperatura (degC), Point: (29.99, 468.75)Temperatura (degC), Point: (0, 492.19)Temperatura (degC), Point: (15, 492.19)Temperatura (degC), Point: (25.641, 492.19)Temperatura (degC), Point: (27.821, 492.19)Temperatura (degC), Point: (29.128, 492.19)Temperatura (degC), Point: (29.99, 492.19)
12.000                   1.5000                   1.0000                   2000.0                   4000.0                   0.0000                   20.000                   20.000                   20.000                   20.000                   20.009                   20.089                   20.000                   20.000                   20.000                   20.000                   20.025                   20.136                   20.000                   20.000                   20.000                   20.000                   20.038                   20.170                   20.000                   20.000                   20.000                   20.000                   20.011                   20.094                   20.000                   20.000                   20.000                   20.000                   20.016                   20.108                   20.000                   20.000                   20.000                   20.000                   20.045                   20.185                   20.000                   20.000                   20.000                   20.000                   20.017                   20.111                   20.000                   20.000                   20.000                   20.000                   20.010                   20.092                   20.000                   20.000                   20.000                   20.000                   20.021                   20.124                   20.000                   20.000                   20.000                   20.000                   20.038                   20.169
12.000                   1.5000                   1.0000                   2000.0                   4000.0                   5.0000                   23.760                   34.204                   75.007                   89.187                   98.568                   102.51                   25.294                   40.733                   102.04                   124.84                   140.08                   145.86                   26.114                   44.584                   120.34                   149.39                   168.39                   175.29                   23.944                   34.925                   77.433                   92.779                   102.93                   107.10                   24.439                   36.953                   85.501                   103.16                   114.96                   119.66                   26.442                   46.149                   127.86                   159.65                   180.75                   188.29                   24.588                   37.603                   88.248                   106.24                   118.17                   123.03                   23.843                   34.528                   75.870                   90.614                   100.38                   104.43                   24.979                   39.224                   95.350                   115.51                   128.98                   134.34                   29.344                   48.890                   121.75                   148.98                   167.01                   173.59
12.000                   1.5000                   1.0000                   2000.0                   4000.0                   10.000                   45.704                   69.904                   128.78                   144.94                   155.12                   159.18                   53.647                   87.744                   174.37                   201.79                   219.13                   225.27                   57.507                   96.890                   199.88                   233.71                   255.50                   262.70                   46.703                   72.006                   133.44                   151.85                   163.28                   167.64                   49.442                   78.161                   149.01                   170.60                   184.11                   189.12                   59.026                   100.47                   209.58                   245.74                   268.74                   276.27                   50.070                   79.549                   152.95                   175.20                   189.26                   194.35                   46.050                   70.658                   130.26                   147.73                   158.42                   162.66                   51.924                   83.428                   163.09                   187.71                   203.26                   208.68                   65.425                   105.67                   202.44                   232.98                   252.45                   259.16
12.000                   1.5000                   1.0000                   2000.0                   4000.0                   15.000                   80.859                   114.19                   186.55                   205.26                   216.75                   221.11                   96.043                   141.62                   246.04                   278.01                   297.62                   304.12                   103.03                   154.60                   276.13                   314.80                   338.53                   345.93                   82.885                   117.72                   193.29                   214.67                   227.54                   232.24                   88.192                   127.27                   213.11                   237.74                   252.69                   258.05                   105.73                   159.63                   287.73                   328.90                   354.22                   362.09                   89.288                   129.33                   219.04                   244.65                   260.52                   266.05                   81.504                   115.50                   189.57                   210.02                   222.39                   227.07                   92.637                   134.75                   230.87                   259.25                   276.67                   282.50                   115.96                   167.35                   279.19                   313.17                   334.14                   340.94
12.000                   1.5000                   1.0000                   2000.0                   4000.0                   20.000                   125.49                   165.14                   249.55                   272.20                   285.81                   290.63                   146.28                   198.83                   316.34                   352.16                   373.84                   380.67                   155.57                   214.20                   349.15                   392.03                   417.43                   425.06                   128.40                   169.61                   256.48                   280.91                   295.47                   300.60                   135.58                   181.15                   278.61                   306.41                   322.93                   328.65                   159.25                   220.50                   363.26                   409.03                   436.29                   444.41                   137.05                   183.80                   286.02                   315.55                   333.59                   339.47                   126.34                   166.71                   252.60                   276.37                   290.66                   295.75                   141.45                   190.16                   299.01                   331.47                   351.04                   357.20                   171.56                   228.66                   351.17                   388.43                   410.76                   417.61
12.000                   1.5000                   1.0000                   2000.0                   4000.0                   25.000                   173.40                   217.54                   310.96                   336.39                   351.70                   356.88                   198.44                   255.91                   383.04                   421.48                   444.69                   451.74                   209.25                   272.69                   417.14                   462.64                   489.12                   496.87                   177.31                   223.45                   320.50                   348.07                   364.41                   369.90                   185.65                   235.90                   342.89                   373.75                   391.69                   397.58                   213.79                   280.15                   433.52                   482.12                   510.53                   518.84                   187.36                   238.88                   350.44                   382.79                   402.28                   408.40                   174.70                   219.98                   316.03                   342.83                   358.84                   364.24                   192.41                   245.77                   364.12                   399.70                   420.95                   427.39                   226.89                   287.52                   416.63                   455.50                   478.57                   485.39
12.000                   1.5000                   1.0000                   2000.0                   4000.0                   30.000                   222.65                   270.29                   371.14                   398.78                   415.36                   420.71                   251.02                   312.32                   447.71                   488.61                   513.17                   520.33                   262.85                   330.02                   482.74                   530.61                   558.00                   565.82                   227.58                   277.57                   383.04                   413.20                   431.04                   436.79                   236.59                   290.38                   404.98                   438.38                   457.58                   463.56                   268.06                   338.28                   500.23                   551.22                   580.56                   588.94                   238.45                   293.56                   412.42                   446.81                   467.30                   473.56                   224.46                   273.56                   377.79                   407.00                   424.33                   429.90                   243.85                   300.69                   426.28                   464.00                   486.32                   492.94                   281.17                   344.32                   478.45                   518.55                   542.14                   548.91
12.000                   1.5000                   1.0000                   2000.0                   4000.0                   35.000                   272.55                   323.12                   430.86                   461.22                   479.23                   484.73                   303.29                   367.77                   511.42                   555.38                   581.27                   588.47                   315.71                   386.02                   547.43                   598.69                   627.47                   635.38                   278.39                   331.54                   444.61                   477.49                   496.86                   502.80                   287.69                   344.43                   466.49                   502.78                   523.58                   529.71                   321.37                   394.66                   564.86                   619.21                   649.83                   658.18                   289.61                   347.64                   473.49                   510.40                   532.06                   538.45                   274.79                   326.92                   438.04                   469.75                   488.43                   494.13                   295.01                   354.61                   486.67                   526.59                   549.85                   556.57                   333.06                   398.25                   537.56                   579.55                   603.88                   610.60
12.000                   1.5000                   1.0000                   2000.0                   4000.0                   40.000                   322.53                   375.94                   491.20                   526.14                   546.68                   552.58                   354.62                   422.05                   575.31                   623.76                   651.06                   658.30                   367.26                   440.55                   612.64                   669.69                   701.20                   709.25                   329.10                   385.15                   506.66                   543.59                   565.07                   571.16                   338.42                   398.20                   530.12                   570.99                   594.47                   600.97                   373.08                   449.11                   629.14                   689.52                   722.44                   730.69                   340.27                   401.18                   535.92                   577.63                   601.49                   608.05                   325.00                   379.79                   497.71                   533.18                   553.92                   559.84                   345.18                   407.34                   547.18                   590.88                   615.67                   622.44                   380.98                   448.20                   594.66                   640.35                   666.13                   672.87
12.000                   1.5000                   1.0000                   2000.0                   4000.0                   45.000                   371.25                   427.77                   552.55                   590.95                   613.08                   619.16                   403.39                   473.20                   633.01                   684.78                   713.27                   720.47                   415.84                   491.25                   667.69                   726.72                   759.53                   767.67                   378.10                   437.04                   567.52                   607.77                   630.82                   637.05                   387.31                   449.99                   590.76                   635.14                   660.25                   666.86                   421.50                   499.35                   683.25                   746.81                   782.56                   791.26                   388.98                   452.61                   595.75                   640.99                   666.48                   673.16                   373.53                   431.02                   557.38                   596.00                   618.19                   624.26                   393.03                   457.63                   605.05                   652.26                   678.71                   685.57                   426.24                   495.37                   646.15                   693.95                   720.34                   726.96
12.000                   1.5000                   1.0000                   2000.0                   4000.0                   50.000                   418.24                   477.60                   609.72                   651.07                   674.43                   680.54                   449.95                   521.54                   684.75                   739.21                   769.68                   777.06                   462.24                   539.33                   722.15                   789.63                   825.97                   834.34                   425.12                   486.57                   623.28                   666.16                   690.22                   696.41                   434.15                   499.15                   644.85                   691.10                   716.83                   723.35                   467.71                   547.11                   739.96                   814.21                   853.51                   862.35                   435.64                   501.45                   649.09                   696.06                   722.19                   728.77                   420.16                   480.13                   612.88                   654.23                   677.58                   683.67                   438.71                   505.22                   656.46                   705.25                   732.41                   739.19                   469.53                   539.66                   691.33                   740.67                   768.34                   775.01
12.000                   1.5000                   1.0000                   2000.0                   4000.0                   55.000                   463.18                   524.47                   659.60                   702.03                   725.82                   731.78                   494.35                   566.93                   734.07                   793.80                   826.50                   833.96                   506.56                   584.84                   780.79                   858.46                   897.48                   905.66                   469.94                   532.96                   671.61                   715.41                   739.90                   745.94                   478.83                   545.18                   692.22                   739.91                   766.53                   772.97                   511.87                   592.51                   803.51                   889.02                   930.21                   938.54                   480.15                   547.23                   696.18                   744.83                   771.99                   778.51                   464.67                   526.29                   661.54                   703.91                   727.68                   733.62                   482.16                   549.71                   702.25                   753.18                   781.59                   788.33                   510.78                   580.89                   733.09                   785.98                   815.30                   821.99
12.000                   1.5000                   1.0000                   2000.0                   4000.0                   60.000                   506.23                   568.30                   701.58                   742.99                   766.44                   772.10                   536.96                   609.72                   783.58                   851.97                   886.64                   893.90                   549.21                   628.18                   845.70                   931.98                   971.11                   978.41                   512.82                   576.26                   712.41                   755.47                   780.06                   785.95                   521.63                   588.24                   733.89                   783.64                   812.01                   818.49                   554.39                   635.97                   875.38                   968.61                   1008.9                   1015.9                   522.82                   590.14                   738.21                   789.74                   818.89                   825.47                   507.27                   569.54                   702.93                   744.38                   767.88                   773.53                   523.71                   591.36                   743.88                   798.97                   829.64                   836.49                   550.27                   619.42                   773.75                   832.98                   863.93                   870.47
12.000                   1.5000                   1.0000                   2000.0                   4000.0                   65.000                   546.63                   606.86                   730.95                   769.12                   790.75                   795.68                   576.99                   648.52                   825.10                   885.99                   915.00                   920.48                   589.52                   669.84                   922.99                   1001.5                   1031.1                   1035.0                   552.96                   614.36                   741.97                   782.63                   805.45                   810.52                   561.74                   626.38                   766.26                   814.21                   839.51                   844.86                   594.73                   679.98                   1021.8                   1106.3                   1126.9                   1126.8                   562.84                   628.26                   771.66                   821.47                   847.42                   852.85                   547.26                   607.76                   732.79                   771.63                   793.67                   798.68                   562.56                   628.42                   779.13                   833.89                   862.08                   867.95                   586.96                   653.82                   809.48                   865.32                   892.88                   898.26
12.000                   1.5000                   1.0000                   2000.0                   4000.0                   70.000                   583.33                   639.53                   750.74                   784.05                   802.44                   806.38                   613.84                   683.18                   852.53                   900.05                   921.87                   925.56                   627.44                   711.45                   1003.9                   1062.9                   1078.2                   1077.9                   589.41                   646.80                   762.23                   797.76                   816.87                   820.84                   598.26                   659.15                   788.04                   828.47                   848.89                   852.92                   633.16                   727.65                   1121.7                   1166.3                   1173.6                   1170.6                   599.34                   661.15                   794.02                   835.62                   856.41                   860.46                   583.70                   640.41                   753.70                   788.33                   807.41                   811.48                   597.88                   660.53                   805.63                   854.51                   878.91                   883.69                   620.05                   683.45                   834.36                   882.54                   905.88                   910.10
12.000                   1.5000                   1.0000                   2000.0                   4000.0                   75.000                   614.75                   665.98                   766.21                   796.47                   812.94                   816.30                   646.55                   713.24                   878.69                   918.09                   935.77                   938.39                   662.10                   753.87                   1054.3                   1094.3                   1102.5                   1100.4                   620.64                   673.08                   778.05                   810.04                   826.91                   830.26                   629.84                   685.95                   805.28                   840.45                   858.08                   861.38                   668.69                   781.33                   1152.7                   1180.2                   1182.9                   1178.9                   631.01                   688.18                   811.65                   847.52                   865.34                   868.62                   615.07                   667.10                   770.59                   802.54                   819.78                   823.29                   628.28                   686.89                   827.61                   872.65                   895.00                   899.17                   648.53                   707.63                   854.91                   898.67                   919.76                   923.34