% Model:              batchmodel_COIL_N_12_COIL_kr_3_COIL_kh_1_FUNZ_freq_2000_FUNZ_I_eff_2500.mph
% Version:            COMSOL 6.0.0.318
% Date:               Feb 8 2022, 19:45
% Table:              Tabella 1 - GRIGLIA_T
% COIL_N                 COIL_kr                  COIL_kh                  FUNZ_freq                FUNZ_I_eff               Time (s)                 Temperatura (degC), Point: (0, 0)Temperatura (degC), Point: (15, 0)Temperatura (degC), Point: (25.641, 0)Temperatura (degC), Point: (27.821, 0)Temperatura (degC), Point: (29.128, 0)Temperatura (degC), Point: (29.99, 0)Temperatura (degC), Point: (0, 62.5)Temperatura (degC), Point: (15, 62.5)Temperatura (degC), Point: (25.641, 62.5)Temperatura (degC), Point: (27.821, 62.5)Temperatura (degC), Point: (29.128, 62.5)Temperatura (degC), Point: (29.99, 62.5)Temperatura (degC), Point: (0, 125)Temperatura (degC), Point: (15, 125)Temperatura (degC), Point: (25.641, 125)Temperatura (degC), Point: (27.821, 125)Temperatura (degC), Point: (29.128, 125)Temperatura (degC), Point: (29.99, 125)Temperatura (degC), Point: (0, 187.5)Temperatura (degC), Point: (15, 187.5)Temperatura (degC), Point: (25.641, 187.5)Temperatura (degC), Point: (27.821, 187.5)Temperatura (degC), Point: (29.128, 187.5)Temperatura (degC), Point: (29.99, 187.5)Temperatura (degC), Point: (0, 250)Temperatura (degC), Point: (15, 250)Temperatura (degC), Point: (25.641, 250)Temperatura (degC), Point: (27.821, 250)Temperatura (degC), Point: (29.128, 250)Temperatura (degC), Point: (29.99, 250)Temperatura (degC), Point: (0, 312.5)Temperatura (degC), Point: (15, 312.5)Temperatura (degC), Point: (25.641, 312.5)Temperatura (degC), Point: (27.821, 312.5)Temperatura (degC), Point: (29.128, 312.5)Temperatura (degC), Point: (29.99, 312.5)Temperatura (degC), Point: (0, 375)Temperatura (degC), Point: (15, 375)Temperatura (degC), Point: (25.641, 375)Temperatura (degC), Point: (27.821, 375)Temperatura (degC), Point: (29.128, 375)Temperatura (degC), Point: (29.99, 375)Temperatura (degC), Point: (0, 437.5)Temperatura (degC), Point: (15, 437.5)Temperatura (degC), Point: (25.641, 437.5)Temperatura (degC), Point: (27.821, 437.5)Temperatura (degC), Point: (29.128, 437.5)Temperatura (degC), Point: (29.99, 437.5)Temperatura (degC), Point: (0, 468.75)Temperatura (degC), Point: (15, 468.75)Temperatura (degC), Point: (25.641, 468.75)Temperatura (degC), Point: (27.821, 468.75)Temperatura (degC), Point: (29.128, 468.75)Temperatura (degC), Point: (29.99, 468.75)Temperatura (degC), Point: (0, 492.19)Temperatura (degC), Point: (15, 492.19)Temperatura (degC), Point: (25.641, 492.19)Temperatura (degC), Point: (27.821, 492.19)Temperatura (degC), Point: (29.128, 492.19)Temperatura (degC), Point: (29.99, 492.19)
12.000                   3.0000                   1.0000                   2000.0                   2500.0                   0.0000                   20.000                   20.000                   20.000                   20.000                   20.005                   20.070                   20.000                   20.000                   20.000                   20.000                   20.006                   20.072                   20.000                   20.000                   20.000                   20.000                   20.006                   20.072                   20.000                   20.000                   20.000                   20.000                   20.005                   20.070                   20.000                   20.000                   20.000                   20.000                   20.005                   20.071                   20.000                   20.000                   20.000                   20.000                   20.006                   20.073                   20.000                   20.000                   20.000                   20.000                   20.005                   20.071                   20.000                   20.000                   20.000                   20.000                   20.005                   20.069                   20.000                   20.000                   20.000                   20.000                   20.004                   20.065                   20.000                   20.000                   20.000                   20.000                   20.001                   20.049
12.000                   3.0000                   1.0000                   2000.0                   2500.0                   5.0000                   22.137                   28.065                   51.706                   60.440                   66.300                   68.990                   22.161                   28.128                   51.865                   60.734                   66.771                   69.504                   22.229                   28.433                   53.356                   62.673                   68.920                   71.703                   22.142                   28.030                   51.345                   59.979                   65.810                   68.482                   22.157                   28.078                   51.446                   60.119                   66.021                   68.718                   22.189                   28.267                   52.500                   61.547                   67.716                   70.502                   22.104                   27.867                   50.671                   59.211                   65.069                   67.742                   21.940                   27.290                   48.639                   56.678                   62.215                   64.773                   21.702                   26.453                   45.642                   52.971                   58.060                   60.435                   21.429                   24.936                   38.275                   43.165                   46.556                   48.238
12.000                   3.0000                   1.0000                   2000.0                   2500.0                   10.000                   33.472                   46.125                   77.396                   86.885                   93.011                   95.672                   33.632                   46.449                   78.268                   87.977                   94.225                   96.978                   33.876                   46.939                   79.190                   88.906                   95.142                   97.893                   33.521                   46.168                   77.457                   86.980                   93.128                   95.826                   33.583                   46.300                   77.789                   87.360                   93.522                   96.220                   33.703                   46.650                   78.837                   88.655                   94.941                   97.691                   33.370                   45.923                   77.222                   86.825                   92.997                   95.719                   32.565                   44.481                   74.395                   83.654                   89.644                   92.318                   31.113                   41.841                   69.156                   77.651                   83.116                   85.615                   29.505                   37.807                   57.424                   63.257                   66.887                   68.629
12.000                   3.0000                   1.0000                   2000.0                   2500.0                   15.000                   49.912                   66.269                   100.91                   110.78                   117.14                   119.80                   50.261                   66.908                   102.37                   112.51                   119.11                   121.87                   50.625                   67.438                   103.18                   113.43                   120.06                   122.93                   49.989                   66.343                   100.94                   110.74                   117.02                   119.66                   50.103                   66.567                   101.51                   111.43                   117.86                   120.56                   50.310                   67.019                   102.59                   112.78                   119.36                   122.20                   49.722                   66.038                   100.70                   110.56                   116.94                   119.62                   48.140                   63.784                   97.076                   106.50                   112.56                   115.12                   44.942                   59.075                   89.559                   98.232                   103.86                   106.27                   41.529                   52.598                   74.620                   80.509                   84.124                   85.832
12.000                   3.0000                   1.0000                   2000.0                   2500.0                   20.000                   70.105                   87.872                   124.33                   134.60                   141.22                   143.97                   70.622                   88.725                   126.10                   136.66                   143.50                   146.34                   71.025                   89.275                   126.95                   137.63                   144.52                   147.43                   70.180                   87.951                   124.43                   134.69                   141.28                   144.02                   70.322                   88.208                   125.00                   135.37                   142.07                   144.85                   70.610                   88.780                   126.32                   136.97                   143.84                   146.73                   69.777                   87.534                   124.10                   134.42                   141.07                   143.84                   67.136                   84.119                   119.00                   128.79                   135.08                   137.74                   61.692                   76.884                   108.33                   117.19                   122.93                   125.39                   56.312                   68.184                   90.756                   96.684                   100.39                   102.12
12.000                   3.0000                   1.0000                   2000.0                   2500.0                   25.000                   90.860                   109.83                   148.10                   158.82                   165.73                   168.60                   91.517                   110.84                   150.01                   161.03                   168.12                   171.04                   91.941                   111.39                   150.87                   161.98                   169.15                   172.10                   90.930                   109.91                   148.27                   159.05                   165.98                   168.85                   91.082                   110.17                   148.76                   159.60                   166.59                   169.48                   91.435                   110.83                   150.23                   161.34                   168.50                   171.45                   90.376                   109.35                   147.77                   158.57                   165.54                   168.42                   86.592                   104.67                   141.08                   151.26                   157.83                   160.58                   78.817                   94.812                   127.07                   136.12                   141.98                   144.50                   71.476                   83.918                   106.86                   112.82                   116.62                   118.37
12.000                   3.0000                   1.0000                   2000.0                   2500.0                   30.000                   112.37                   132.45                   172.84                   184.17                   191.44                   194.42                   113.10                   133.49                   174.56                   186.10                   193.51                   196.52                   113.51                   133.99                   175.28                   186.87                   194.34                   197.34                   112.44                   132.54                   173.04                   184.44                   191.75                   194.74                   112.55                   132.70                   173.24                   184.62                   191.96                   194.95                   112.93                   133.36                   174.58                   186.17                   193.65                   196.65                   111.69                   131.75                   172.16                   183.51                   190.83                   193.82                   106.61                   125.63                   163.74                   174.41                   181.27                   184.12                   96.380                   112.99                   146.21                   155.52                   161.56                   164.14                   87.142                   99.958                   123.30                   129.33                   133.21                   134.98
12.000                   3.0000                   1.0000                   2000.0                   2500.0                   35.000                   134.89                   155.91                   198.24                   210.13                   217.71                   220.77                   135.65                   156.96                   199.92                   212.01                   219.75                   222.84                   136.07                   157.47                   200.65                   212.79                   220.62                   223.68                   134.96                   156.02                   198.52                   210.50                   218.16                   221.24                   135.06                   156.17                   198.67                   210.62                   218.29                   221.36                   135.41                   156.77                   199.85                   211.97                   219.76                   222.84                   133.98                   154.97                   197.28                   209.18                   216.84                   219.90                   127.38                   147.22                   186.99                   198.15                   205.30                   208.22                   114.75                   131.95                   166.31                   175.95                   182.18                   184.81                   103.93                   117.15                   141.23                   147.45                   151.39                   153.16
12.000                   3.0000                   1.0000                   2000.0                   2500.0                   40.000                   158.03                   179.90                   224.04                   236.46                   244.33                   247.45                   158.79                   180.95                   225.79                   238.45                   246.54                   249.69                   159.23                   181.50                   226.62                   239.37                   247.56                   250.69                   158.11                   180.05                   224.45                   236.98                   244.96                   248.11                   158.21                   180.21                   224.69                   237.21                   245.23                   248.36                   158.51                   180.72                   225.69                   238.37                   246.49                   249.63                   156.87                   178.71                   222.86                   235.31                   243.29                   246.42                   148.62                   169.19                   210.60                   222.26                   229.69                   232.67                   133.63                   151.40                   187.02                   197.01                   203.45                   206.11                   121.41                   135.06                   160.09                   166.57                   170.55                   172.32
12.000                   3.0000                   1.0000                   2000.0                   2500.0                   45.000                   181.16                   203.88                   249.85                   262.79                   270.96                   274.13                   181.93                   204.93                   251.66                   264.88                   273.32                   276.55                   182.39                   205.52                   252.59                   265.95                   274.50                   277.70                   181.27                   204.07                   250.37                   263.46                   271.77                   274.97                   181.36                   204.24                   250.70                   263.81                   272.16                   275.36                   181.61                   204.68                   251.53                   264.76                   273.21                   276.42                   179.76                   202.44                   248.44                   261.45                   269.74                   272.93                   169.85                   191.17                   234.22                   246.36                   254.08                   257.12                   152.51                   170.84                   207.73                   218.08                   224.72                   227.41                   138.90                   152.97                   178.95                   185.68                   189.71                   191.49
12.000                   3.0000                   1.0000                   2000.0                   2500.0                   50.000                   204.38                   227.92                   275.67                   289.12                   297.59                   300.82                   205.17                   229.00                   277.56                   291.33                   300.08                   303.37                   205.64                   229.61                   278.58                   292.53                   301.45                   304.71                   204.49                   228.13                   276.26                   289.89                   298.51                   301.78                   204.60                   228.34                   276.66                   290.32                   298.99                   302.26                   204.82                   228.73                   277.45                   291.23                   300.00                   303.27                   202.74                   226.24                   274.05                   287.60                   296.20                   299.44                   191.18                   213.23                   257.87                   270.50                   278.49                   281.58                   171.57                   190.47                   228.61                   239.31                   246.16                   248.89                   156.62                   171.10                   197.95                   204.91                   209.00                   210.79
12.000                   3.0000                   1.0000                   2000.0                   2500.0                   55.000                   227.77                   252.09                   301.51                   315.47                   324.24                   327.52                   228.61                   253.24                   303.53                   317.79                   326.81                   330.15                   229.06                   253.84                   304.62                   319.15                   328.42                   331.73                   227.88                   252.29                   302.09                   316.21                   325.14                   328.45                   228.03                   252.54                   302.51                   316.65                   325.62                   328.92                   228.25                   252.98                   303.52                   317.85                   326.91                   330.24                   225.88                   250.17                   299.72                   313.78                   322.67                   325.95                   212.69                   235.44                   281.62                   294.68                   302.93                   306.06                   191.00                   210.46                   249.85                   260.91                   267.98                   270.74                   174.86                   189.71                   217.28                   224.40                   228.58                   230.37
12.000                   3.0000                   1.0000                   2000.0                   2500.0                   60.000                   251.16                   276.25                   327.35                   341.82                   350.90                   354.22                   252.05                   277.48                   329.50                   344.25                   353.54                   356.93                   252.49                   278.06                   330.65                   345.76                   355.39                   358.74                   251.26                   276.44                   327.91                   342.54                   351.76                   355.12                   251.45                   276.74                   328.35                   342.99                   352.25                   355.59                   251.67                   277.24                   329.60                   344.47                   353.82                   357.20                   249.03                   274.11                   325.38                   339.97                   349.14                   352.46                   234.19                   257.66                   305.36                   318.86                   327.37                   330.54                   210.43                   230.45                   271.09                   282.51                   289.79                   292.58                   193.10                   208.32                   236.60                   243.89                   248.15                   249.95
12.000                   3.0000                   1.0000                   2000.0                   2500.0                   65.000                   274.53                   300.38                   353.16                   368.13                   377.50                   380.88                   275.47                   301.70                   355.43                   370.67                   380.23                   383.67                   275.89                   302.27                   356.67                   372.34                   382.32                   385.73                   274.62                   300.57                   353.70                   368.82                   378.35                   381.75                   274.85                   300.92                   354.17                   369.29                   378.84                   382.22                   275.08                   301.47                   355.66                   371.07                   380.72                   384.14                   272.16                   298.02                   351.01                   366.12                   375.58                   378.93                   255.68                   279.85                   329.05                   343.00                   351.75                   354.96                   229.86                   250.42                   292.31                   304.09                   311.58                   314.40                   211.34                   226.92                   255.91                   263.37                   267.72                   269.53
12.000                   3.0000                   1.0000                   2000.0                   2500.0                   70.000                   297.11                   323.54                   377.56                   392.89                   402.46                   405.84                   298.15                   325.02                   380.14                   395.79                   405.54                   408.99                   298.67                   325.75                   381.78                   397.98                   408.26                   411.69                   297.29                   323.85                   378.32                   393.85                   403.59                   406.99                   297.63                   324.33                   378.89                   394.39                   404.14                   407.53                   297.95                   325.08                   380.95                   396.87                   406.77                   410.22                   294.60                   321.12                   375.53                   391.06                   400.76                   404.13                   276.42                   301.08                   351.26                   365.45                   374.31                   377.53                   248.97                   269.96                   312.82                   324.91                   332.60                   335.44                   229.58                   245.48                   275.13                   282.78                   287.27                   289.08
12.000                   3.0000                   1.0000                   2000.0                   2500.0                   75.000                   319.70                   346.70                   401.96                   417.66                   427.42                   430.81                   320.84                   348.35                   404.84                   420.90                   430.85                   434.31                   321.44                   349.23                   406.89                   423.62                   434.19                   437.65                   319.95                   347.12                   402.93                   418.87                   428.83                   432.24                   320.41                   347.74                   403.61                   419.50                   429.44                   432.85                   320.82                   348.70                   406.24                   422.68                   432.82                   436.29                   317.04                   344.21                   400.05                   416.00                   425.94                   429.33                   297.15                   322.32                   373.48                   387.91                   396.87                   400.10                   268.08                   289.51                   333.33                   345.73                   353.61                   356.47                   247.82                   264.05                   294.34                   302.19                   306.81                   308.64