% Model:              batchmodel_COIL_N_12_COIL_kr_3_COIL_kh_1_FUNZ_freq_10000_FUNZ_I_eff_1000.mph
% Version:            COMSOL 6.0.0.318
% Date:               Feb 8 2022, 19:52
% Table:              Tabella 1 - GRIGLIA_T
% COIL_N                 COIL_kr                  COIL_kh                  FUNZ_freq                FUNZ_I_eff               Time (s)                 Temperatura (degC), Point: (0, 0)Temperatura (degC), Point: (15, 0)Temperatura (degC), Point: (28.051, 0)Temperatura (degC), Point: (29.025, 0)Temperatura (degC), Point: (29.61, 0)Temperatura (degC), Point: (29.99, 0)Temperatura (degC), Point: (0, 62.5)Temperatura (degC), Point: (15, 62.5)Temperatura (degC), Point: (28.051, 62.5)Temperatura (degC), Point: (29.025, 62.5)Temperatura (degC), Point: (29.61, 62.5)Temperatura (degC), Point: (29.99, 62.5)Temperatura (degC), Point: (0, 125)Temperatura (degC), Point: (15, 125)Temperatura (degC), Point: (28.051, 125)Temperatura (degC), Point: (29.025, 125)Temperatura (degC), Point: (29.61, 125)Temperatura (degC), Point: (29.99, 125)Temperatura (degC), Point: (0, 187.5)Temperatura (degC), Point: (15, 187.5)Temperatura (degC), Point: (28.051, 187.5)Temperatura (degC), Point: (29.025, 187.5)Temperatura (degC), Point: (29.61, 187.5)Temperatura (degC), Point: (29.99, 187.5)Temperatura (degC), Point: (0, 250)Temperatura (degC), Point: (15, 250)Temperatura (degC), Point: (28.051, 250)Temperatura (degC), Point: (29.025, 250)Temperatura (degC), Point: (29.61, 250)Temperatura (degC), Point: (29.99, 250)Temperatura (degC), Point: (0, 312.5)Temperatura (degC), Point: (15, 312.5)Temperatura (degC), Point: (28.051, 312.5)Temperatura (degC), Point: (29.025, 312.5)Temperatura (degC), Point: (29.61, 312.5)Temperatura (degC), Point: (29.99, 312.5)Temperatura (degC), Point: (0, 375)Temperatura (degC), Point: (15, 375)Temperatura (degC), Point: (28.051, 375)Temperatura (degC), Point: (29.025, 375)Temperatura (degC), Point: (29.61, 375)Temperatura (degC), Point: (29.99, 375)Temperatura (degC), Point: (0, 437.5)Temperatura (degC), Point: (15, 437.5)Temperatura (degC), Point: (28.051, 437.5)Temperatura (degC), Point: (29.025, 437.5)Temperatura (degC), Point: (29.61, 437.5)Temperatura (degC), Point: (29.99, 437.5)Temperatura (degC), Point: (0, 468.75)Temperatura (degC), Point: (15, 468.75)Temperatura (degC), Point: (28.051, 468.75)Temperatura (degC), Point: (29.025, 468.75)Temperatura (degC), Point: (29.61, 468.75)Temperatura (degC), Point: (29.99, 468.75)Temperatura (degC), Point: (0, 492.19)Temperatura (degC), Point: (15, 492.19)Temperatura (degC), Point: (28.051, 492.19)Temperatura (degC), Point: (29.025, 492.19)Temperatura (degC), Point: (29.61, 492.19)Temperatura (degC), Point: (29.99, 492.19)
12.000                   3.0000                   1.0000                   10000                    1000.0                   0.0000                   20.000                   20.000                   20.000                   20.000                   20.003                   20.096                   20.000                   20.000                   20.000                   20.000                   20.003                   20.099                   20.000                   20.000                   20.000                   20.000                   20.003                   20.100                   20.000                   20.000                   20.000                   20.000                   20.003                   20.096                   20.000                   20.000                   20.000                   20.000                   20.003                   20.097                   20.000                   20.000                   20.000                   20.000                   20.003                   20.100                   20.000                   20.000                   20.000                   20.000                   20.003                   20.097                   20.000                   20.000                   20.000                   20.000                   20.003                   20.094                   20.000                   20.000                   20.000                   20.000                   20.003                   20.093                   20.000                   20.000                   20.000                   20.000                   20.002                   20.077
12.000                   3.0000                   1.0000                   10000                    1000.0                   5.0000                   21.061                   24.011                   41.769                   44.129                   45.608                   46.382                   21.086                   24.143                   42.509                   44.953                   46.486                   47.286                   21.098                   24.198                   42.827                   45.304                   46.860                   47.669                   21.061                   24.032                   41.859                   44.229                   45.715                   46.492                   21.069                   24.070                   42.088                   44.485                   45.989                   46.774                   21.100                   24.206                   42.884                   45.368                   46.928                   47.740                   21.067                   24.065                   42.070                   44.466                   45.969                   46.754                   21.039                   23.954                   41.539                   43.887                   45.360                   46.132                   21.009                   23.837                   40.949                   43.252                   44.661                   45.380                   21.292                   24.477                   39.531                   41.445                   42.602                   43.214
12.000                   3.0000                   1.0000                   10000                    1000.0                   10.000                   27.046                   33.454                   55.542                   57.957                   59.467                   60.249                   27.182                   33.781                   56.579                   59.083                   60.650                   61.459                   27.239                   33.913                   57.002                   59.544                   61.134                   61.954                   27.058                   33.497                   55.678                   58.107                   59.625                   60.412                   27.100                   33.596                   56.004                   58.461                   59.997                   60.793                   27.241                   33.926                   57.066                   59.615                   61.210                   62.032                   27.084                   33.571                   55.955                   58.409                   59.943                   60.738                   26.903                   33.215                   54.984                   57.358                   58.840                   59.609                   26.840                   32.953                   54.150                   56.489                   57.907                   58.614                   28.439                   35.708                   56.239                   58.234                   59.434                   60.036
12.000                   3.0000                   1.0000                   10000                    1000.0                   15.000                   35.707                   44.208                   68.253                   70.739                   72.280                   73.072                   35.974                   44.703                   69.496                   72.072                   73.670                   74.487                   36.081                   44.900                   69.997                   72.609                   74.231                   75.058                   35.735                   44.269                   68.417                   70.915                   72.465                   73.260                   35.815                   44.419                   68.805                   71.332                   72.899                   73.703                   36.081                   44.911                   70.059                   72.678                   74.305                   75.135                   35.776                   44.366                   68.719                   71.243                   72.809                   73.612                   35.382                   43.736                   67.370                   69.811                   71.324                   72.103                   35.426                   43.541                   66.520                   68.887                   70.326                   71.051                   39.081                   49.329                   73.209                   75.346                   76.514                   77.102
12.000                   3.0000                   1.0000                   10000                    1000.0                   20.000                   45.888                   55.486                   80.578                   83.114                   84.681                   85.479                   46.277                   56.116                   81.972                   84.598                   86.222                   87.046                   46.429                   56.365                   82.530                   85.193                   86.840                   87.674                   45.930                   55.561                   80.757                   83.306                   84.881                   85.682                   46.044                   55.751                   81.188                   83.766                   85.358                   86.168                   46.422                   56.369                   82.584                   85.254                   86.905                   87.742                   45.972                   55.661                   81.061                   83.636                   85.227                   86.036                   45.346                   54.763                   79.390                   81.882                   83.421                   84.207                   45.730                   54.931                   79.008                   81.437                   82.917                   83.665                   51.675                   63.709                   89.803                   92.088                   93.260                   93.837
12.000                   3.0000                   1.0000                   10000                    1000.0                   25.000                   57.041                   67.164                   92.897                   95.478                   97.070                   97.875                   57.517                   67.887                   94.395                   97.067                   98.717                   99.549                   57.702                   68.170                   94.992                   97.702                   99.375                   100.22                   57.090                   67.246                   93.084                   95.678                   97.278                   98.087                   57.226                   67.459                   93.542                   96.164                   97.782                   98.600                   57.680                   68.159                   95.030                   97.747                   99.425                   100.27                   57.110                   67.323                   93.363                   95.982                   97.599                   98.416                   56.284                   66.206                   91.438                   93.971                   95.535                   96.328                   57.089                   66.799                   91.529                   94.013                   95.525                   96.289                   64.326                   76.848                   103.44                   105.75                   106.95                   107.54
12.000                   3.0000                   1.0000                   10000                    1000.0                   30.000                   68.274                   78.875                   105.22                   107.84                   109.46                   110.27                   68.834                   79.687                   106.81                   109.53                   111.21                   112.05                   69.051                   80.004                   107.45                   110.20                   111.90                   112.75                   68.329                   78.963                   105.41                   108.05                   109.67                   110.49                   68.486                   79.199                   105.89                   108.56                   110.20                   111.03                   69.013                   79.976                   107.47                   110.23                   111.94                   112.79                   68.325                   79.014                   105.66                   108.33                   109.97                   110.79                   67.303                   77.683                   103.49                   106.06                   107.65                   108.45                   68.535                   78.707                   104.05                   106.59                   108.13                   108.91                   76.982                   89.886                   116.84                   119.16                   120.39                   120.99
12.000                   3.0000                   1.0000                   10000                    1000.0                   35.000                   79.835                   90.747                   117.61                   120.28                   121.93                   122.75                   80.462                   91.630                   119.29                   122.06                   123.76                   124.61                   80.703                   91.973                   119.96                   122.76                   124.49                   125.35                   79.893                   90.838                   117.81                   120.49                   122.15                   122.97                   80.065                   91.090                   118.31                   121.02                   122.70                   123.53                   80.647                   91.926                   119.96                   122.77                   124.50                   125.36                   79.853                   90.853                   118.02                   120.73                   122.40                   123.23                   78.670                   89.346                   115.64                   118.26                   119.87                   120.68                   80.418                   90.888                   116.75                   119.34                   120.91                   121.70                   90.119                   103.29                   130.50                   132.82                   134.07                   134.67
12.000                   3.0000                   1.0000                   10000                    1000.0                   40.000                   91.856                   102.85                   130.11                   132.83                   134.50                   135.33                   92.527                   103.77                   131.85                   134.66                   136.40                   137.26                   92.783                   104.13                   132.54                   135.39                   137.15                   138.02                   91.913                   102.94                   130.31                   133.04                   134.72                   135.56                   92.092                   103.19                   130.82                   133.58                   135.29                   136.13                   92.704                   104.06                   132.52                   135.38                   137.14                   138.01                   91.823                   102.90                   130.47                   133.23                   134.93                   135.77                   90.528                   101.27                   127.95                   130.61                   132.25                   133.07                   92.916                   103.46                   129.68                   132.33                   133.92                   134.72                   103.93                   117.22                   144.53                   146.86                   148.10                   148.69
12.000                   3.0000                   1.0000                   10000                    1000.0                   45.000                   103.88                   114.94                   142.61                   145.37                   147.08                   147.92                   104.59                   115.92                   144.41                   147.27                   149.04                   149.91                   104.86                   116.29                   145.12                   148.02                   149.82                   150.70                   103.93                   115.03                   142.81                   145.59                   147.30                   148.15                   104.12                   115.30                   143.33                   146.14                   147.88                   148.73                   104.76                   116.20                   145.07                   147.98                   149.78                   150.66                   103.79                   114.94                   142.92                   145.72                   147.46                   148.31                   102.39                   113.20                   140.25                   142.96                   144.63                   145.45                   105.41                   116.02                   142.62                   145.31                   146.94                   147.74                   117.74                   131.14                   158.57                   160.90                   162.13                   162.72
12.000                   3.0000                   1.0000                   10000                    1000.0                   50.000                   116.20                   127.40                   155.54                   158.36                   160.10                   160.95                   116.93                   128.40                   157.38                   160.30                   162.10                   162.98                   117.21                   128.78                   158.10                   161.06                   162.89                   163.78                   116.25                   127.48                   155.74                   158.57                   160.32                   161.17                   116.43                   127.75                   156.26                   159.13                   160.89                   161.76                   117.08                   128.66                   158.02                   160.99                   162.82                   163.71                   116.04                   127.32                   155.78                   158.63                   160.40                   161.26                   114.57                   125.50                   152.99                   155.74                   157.44                   158.28                   118.05                   128.74                   155.64                   158.36                   160.01                   160.81                   131.11                   144.68                   172.23                   174.54                   175.75                   176.33
12.000                   3.0000                   1.0000                   10000                    1000.0                   55.000                   128.54                   139.89                   168.52                   171.39                   173.16                   174.02                   129.30                   140.91                   170.39                   173.36                   175.20                   176.09                   129.59                   141.30                   171.12                   174.14                   176.00                   176.90                   128.59                   139.97                   168.71                   171.59                   173.38                   174.24                   128.77                   140.23                   169.23                   172.15                   173.96                   174.83                   129.42                   141.15                   171.01                   174.03                   175.90                   176.80                   128.31                   139.74                   168.67                   171.59                   173.39                   174.26                   126.78                   137.84                   165.77                   168.57                   170.31                   171.15                   130.71                   141.47                   168.66                   171.42                   173.09                   173.90                   144.44                   158.17                   185.86                   188.14                   189.34                   189.91
12.000                   3.0000                   1.0000                   10000                    1000.0                   60.000                   140.89                   152.38                   181.49                   184.42                   186.23                   187.10                   141.67                   153.43                   183.40                   186.43                   188.31                   189.21                   141.96                   153.82                   184.15                   187.22                   189.12                   190.03                   140.93                   152.45                   181.68                   184.62                   186.44                   187.31                   141.11                   152.71                   182.21                   185.18                   187.02                   187.90                   141.77                   153.64                   184.00                   187.08                   188.98                   189.90                   140.58                   152.15                   181.57                   184.54                   186.37                   187.25                   138.99                   150.18                   178.55                   181.41                   183.17                   184.03                   143.36                   154.21                   181.68                   184.48                   186.17                   186.98                   157.77                   171.66                   199.49                   201.74                   202.92                   203.49
12.000                   3.0000                   1.0000                   10000                    1000.0                   65.000                   153.24                   164.87                   194.47                   197.45                   199.29                   200.17                   154.04                   165.94                   196.41                   199.50                   201.41                   202.32                   154.33                   166.34                   197.17                   200.30                   202.23                   203.16                   153.27                   164.94                   194.65                   197.64                   199.50                   200.38                   153.45                   165.20                   195.18                   198.21                   200.08                   200.97                   154.11                   166.13                   196.99                   200.13                   202.07                   202.99                   152.85                   164.57                   194.47                   197.49                   199.36                   200.25                   151.20                   162.52                   191.33                   194.24                   196.03                   196.90                   156.02                   166.94                   194.70                   197.54                   199.25                   200.06                   171.09                   185.16                   213.11                   215.34                   216.51                   217.07
12.000                   3.0000                   1.0000                   10000                    1000.0                   70.000                   165.59                   177.36                   207.44                   210.48                   212.35                   213.25                   166.41                   178.46                   209.42                   212.57                   214.51                   215.43                   166.71                   178.87                   210.19                   213.38                   215.35                   216.28                   165.61                   177.43                   207.62                   210.67                   212.56                   213.45                   165.79                   177.68                   208.15                   211.23                   213.14                   214.05                   166.45                   178.62                   209.98                   213.17                   215.15                   216.08                   165.12                   176.98                   207.37                   210.44                   212.34                   213.25                   163.42                   174.86                   204.11                   207.07                   208.90                   209.77                   168.67                   179.67                   207.72                   210.59                   212.33                   213.15                   184.42                   198.65                   226.74                   228.94                   230.09                   230.65
12.000                   3.0000                   1.0000                   10000                    1000.0                   75.000                   178.12                   190.11                   220.79                   223.89                   225.81                   226.72                   178.95                   191.21                   222.80                   226.01                   227.99                   228.93                   179.26                   191.63                   223.57                   226.83                   228.84                   229.79                   178.15                   190.16                   220.96                   224.08                   226.01                   226.91                   178.31                   190.41                   221.49                   224.64                   226.59                   227.51                   178.97                   191.35                   223.33                   226.59                   228.60                   229.55                   177.58                   189.64                   220.63                   223.77                   225.72                   226.63                   175.80                   187.43                   217.25                   220.27                   222.13                   223.02                   181.24                   192.36                   220.76                   223.67                   225.43                   226.26                   197.33                   211.65                   239.86                   242.06                   243.21                   243.76