% Model:              batchmodel_COIL_N_12_COIL_kr_1.5_COIL_kh_1.5_FUNZ_freq_2000_FUNZ_I_eff_1000.mph
% Version:            COMSOL 6.0.0.318
% Date:               Feb 8 2022, 18:07
% Table:              Tabella 1 - GRIGLIA_T
% COIL_N                 COIL_kr                  COIL_kh                  FUNZ_freq                FUNZ_I_eff               Time (s)                 Temperatura (degC), Point: (0, 0)Temperatura (degC), Point: (15, 0)Temperatura (degC), Point: (25.641, 0)Temperatura (degC), Point: (27.821, 0)Temperatura (degC), Point: (29.128, 0)Temperatura (degC), Point: (29.99, 0)Temperatura (degC), Point: (0, 62.5)Temperatura (degC), Point: (15, 62.5)Temperatura (degC), Point: (25.641, 62.5)Temperatura (degC), Point: (27.821, 62.5)Temperatura (degC), Point: (29.128, 62.5)Temperatura (degC), Point: (29.99, 62.5)Temperatura (degC), Point: (0, 125)Temperatura (degC), Point: (15, 125)Temperatura (degC), Point: (25.641, 125)Temperatura (degC), Point: (27.821, 125)Temperatura (degC), Point: (29.128, 125)Temperatura (degC), Point: (29.99, 125)Temperatura (degC), Point: (0, 187.5)Temperatura (degC), Point: (15, 187.5)Temperatura (degC), Point: (25.641, 187.5)Temperatura (degC), Point: (27.821, 187.5)Temperatura (degC), Point: (29.128, 187.5)Temperatura (degC), Point: (29.99, 187.5)Temperatura (degC), Point: (0, 250)Temperatura (degC), Point: (15, 250)Temperatura (degC), Point: (25.641, 250)Temperatura (degC), Point: (27.821, 250)Temperatura (degC), Point: (29.128, 250)Temperatura (degC), Point: (29.99, 250)Temperatura (degC), Point: (0, 312.5)Temperatura (degC), Point: (15, 312.5)Temperatura (degC), Point: (25.641, 312.5)Temperatura (degC), Point: (27.821, 312.5)Temperatura (degC), Point: (29.128, 312.5)Temperatura (degC), Point: (29.99, 312.5)Temperatura (degC), Point: (0, 375)Temperatura (degC), Point: (15, 375)Temperatura (degC), Point: (25.641, 375)Temperatura (degC), Point: (27.821, 375)Temperatura (degC), Point: (29.128, 375)Temperatura (degC), Point: (29.99, 375)Temperatura (degC), Point: (0, 437.5)Temperatura (degC), Point: (15, 437.5)Temperatura (degC), Point: (25.641, 437.5)Temperatura (degC), Point: (27.821, 437.5)Temperatura (degC), Point: (29.128, 437.5)Temperatura (degC), Point: (29.99, 437.5)Temperatura (degC), Point: (0, 468.75)Temperatura (degC), Point: (15, 468.75)Temperatura (degC), Point: (25.641, 468.75)Temperatura (degC), Point: (27.821, 468.75)Temperatura (degC), Point: (29.128, 468.75)Temperatura (degC), Point: (29.99, 468.75)Temperatura (degC), Point: (0, 492.19)Temperatura (degC), Point: (15, 492.19)Temperatura (degC), Point: (25.641, 492.19)Temperatura (degC), Point: (27.821, 492.19)Temperatura (degC), Point: (29.128, 492.19)Temperatura (degC), Point: (29.99, 492.19)
12.000                   1.5000                   1.5000                   2000.0                   1000.0                   0.0000                   20.000                   20.000                   20.000                   20.000                   20.000                   20.022                   20.000                   20.000                   20.000                   20.000                   20.000                   20.028                   20.000                   20.000                   20.000                   20.000                   20.000                   20.031                   20.000                   20.000                   20.000                   20.000                   20.000                   20.023                   20.000                   20.000                   20.000                   20.000                   20.000                   20.024                   20.000                   20.000                   20.000                   20.000                   20.000                   20.032                   20.000                   20.000                   20.000                   20.000                   20.000                   20.026                   20.000                   20.000                   20.000                   20.000                   20.000                   20.021                   20.000                   20.000                   20.000                   20.000                   20.000                   20.028                   20.000                   20.000                   20.000                   20.000                   20.000                   20.025
12.000                   1.5000                   1.5000                   2000.0                   1000.0                   5.0000                   20.502                   21.525                   26.160                   27.907                   29.023                   29.637                   20.617                   21.954                   28.178                   30.546                   32.068                   32.878                   20.679                   22.201                   29.455                   32.257                   34.072                   35.023                   20.527                   21.617                   26.643                   28.578                   29.840                   30.527                   20.533                   21.653                   26.866                   28.886                   30.210                   30.931                   20.688                   22.240                   29.658                   32.528                   34.389                   35.362                   20.592                   21.858                   27.705                   29.916                   31.332                   32.089                   20.495                   21.506                   26.097                   27.836                   28.957                   29.566                   20.597                   21.922                   28.191                   30.595                   32.146                   32.971                   20.622                   21.874                   27.396                   29.492                   30.846                   31.580
12.000                   1.5000                   1.5000                   2000.0                   1000.0                   10.000                   22.707                   25.123                   31.373                   33.198                   34.352                   34.979                   23.236                   26.334                   34.609                   37.084                   38.667                   39.509                   23.519                   27.010                   36.561                   39.476                   41.358                   42.344                   22.825                   25.389                   32.105                   34.097                   35.368                   36.054                   22.836                   25.439                   32.321                   34.379                   35.700                   36.412                   23.557                   27.110                   36.863                   39.847                   41.776                   42.783                   23.121                   26.069                   33.878                   36.194                   37.670                   38.459                   22.666                   25.049                   31.215                   33.016                   34.154                   34.771                   23.105                   26.147                   34.416                   36.920                   38.530                   39.388                   23.180                   26.075                   33.501                   35.689                   37.083                   37.836
12.000                   1.5000                   1.5000                   2000.0                   1000.0                   15.000                   26.436                   29.731                   36.599                   38.499                   39.722                   40.380                   27.467                   31.612                   40.527                   43.059                   44.705                   45.567                   27.999                   32.623                   42.779                   45.720                   47.645                   48.639                   26.597                   30.020                   37.135                   39.084                   40.331                   40.991                   26.712                   30.259                   37.730                   39.804                   41.133                   41.836                   28.077                   32.778                   43.135                   46.143                   48.114                   49.129                   27.241                   31.199                   39.646                   42.030                   43.574                   44.387                   26.343                   29.604                   36.415                   38.302                   39.518                   40.166                   27.139                   31.193                   40.072                   42.635                   44.311                   45.190                   27.295                   31.162                   39.101                   41.289                   42.694                   43.440
12.000                   1.5000                   1.5000                   2000.0                   1000.0                   20.000                   30.550                   34.520                   41.979                   43.980                   45.280                   45.973                   32.055                   36.977                   46.465                   49.073                   50.777                   51.661                   32.813                   38.261                   48.947                   51.937                   53.904                   54.910                   30.699                   34.729                   42.104                   44.009                   45.224                   45.851                   30.980                   35.255                   43.253                   45.353                   46.689                   47.379                   32.931                   38.468                   49.359                   52.415                   54.426                   55.453                   31.722                   36.433                   45.455                   47.921                   49.530                   50.367                   30.405                   34.350                   41.793                   43.799                   45.103                   45.784                   31.509                   36.317                   45.757                   48.399                   50.137                   51.039                   31.755                   36.341                   44.702                   46.907                   48.327                   49.072
12.000                   1.5000                   1.5000                   2000.0                   1000.0                   25.000                   35.758                   39.768                   47.289                   49.296                   50.592                   51.282                   37.517                   42.471                   52.041                   54.662                   56.363                   57.245                   38.379                   43.854                   54.637                   57.650                   59.620                   60.627                   35.899                   39.983                   47.497                   49.440                   50.674                   51.311                   36.425                   40.796                   48.951                   51.074                   52.414                   53.103                   38.539                   44.100                   55.085                   58.162                   60.178                   61.204                   37.121                   41.866                   50.965                   53.441                   55.046                   55.880                   35.518                   39.503                   46.997                   49.000                   50.292                   50.965                   36.717                   41.554                   51.076                   53.730                   55.466                   56.365                   37.061                   41.672                   50.086                   52.304                   53.726                   54.472
12.000                   1.5000                   1.5000                   2000.0                   1000.0                   30.000                   40.966                   45.015                   52.599                   54.612                   55.904                   56.590                   42.980                   47.966                   57.616                   60.250                   61.950                   62.828                   43.946                   49.447                   60.328                   63.362                   65.337                   66.343                   41.099                   45.238                   52.889                   54.871                   56.125                   56.771                   41.871                   46.336                   54.649                   56.795                   58.138                   58.827                   44.147                   49.732                   60.812                   63.910                   65.929                   66.955                   42.520                   47.299                   56.475                   58.961                   60.562                   61.393                   40.631                   44.656                   52.201                   54.202                   55.482                   56.147                   41.925                   46.791                   56.394                   59.061                   60.794                   61.691                   42.368                   47.003                   55.471                   57.701                   59.125                   59.871
12.000                   1.5000                   1.5000                   2000.0                   1000.0                   35.000                   46.174                   50.263                   57.909                   59.929                   61.216                   61.899                   48.443                   53.460                   63.192                   65.838                   67.536                   68.412                   49.513                   55.040                   66.019                   69.074                   71.053                   72.059                   46.299                   50.492                   58.281                   60.302                   61.576                   62.231                   47.316                   51.877                   60.348                   62.517                   63.863                   64.551                   49.754                   55.365                   66.539                   69.658                   71.680                   72.706                   47.919                   52.732                   61.984                   64.481                   66.079                   66.907                   45.745                   49.809                   57.405                   59.403                   60.672                   61.329                   47.134                   52.028                   61.712                   64.392                   66.123                   67.017                   47.675                   52.334                   60.856                   63.097                   64.524                   65.271
12.000                   1.5000                   1.5000                   2000.0                   1000.0                   40.000                   51.445                   55.550                   63.212                   65.227                   66.508                   67.185                   53.895                   58.931                   68.700                   71.351                   73.047                   73.920                   55.037                   60.583                   71.615                   74.682                   76.664                   77.669                   51.562                   55.783                   63.650                   65.700                   66.991                   67.656                   52.762                   57.362                   65.923                   68.121                   69.486                   70.182                   55.322                   60.951                   72.180                   75.310                   77.335                   78.360                   53.321                   58.153                   67.438                   69.936                   71.531                   72.355                   50.891                   54.963                   62.549                   64.535                   65.791                   66.440                   52.331                   57.238                   66.951                   69.633                   71.361                   72.252                   52.946                   57.611                   66.150                   68.396                   69.821                   70.567
12.000                   1.5000                   1.5000                   2000.0                   1000.0                   45.000                   56.732                   60.847                   68.513                   70.522                   71.794                   72.464                   59.345                   64.395                   74.191                   76.845                   78.539                   79.409                   60.550                   66.113                   77.188                   80.264                   82.248                   83.252                   56.840                   61.083                   69.014                   71.089                   72.397                   73.071                   58.208                   62.833                   71.467                   73.696                   75.083                   75.789                   60.881                   66.526                   77.799                   80.939                   82.967                   83.991                   58.724                   63.570                   72.877                   75.376                   76.967                   77.787                   56.045                   60.117                   67.679                   69.649                   70.892                   71.534                   57.526                   62.441                   72.170                   74.853                   76.578                   77.464                   58.209                   62.875                   71.422                   73.669                   75.094                   75.838
12.000                   1.5000                   1.5000                   2000.0                   1000.0                   50.000                   62.020                   66.144                   73.814                   75.816                   77.080                   77.744                   64.795                   69.859                   79.682                   82.338                   84.032                   84.898                   66.063                   71.643                   82.761                   85.845                   87.832                   88.835                   62.119                   66.383                   74.378                   76.478                   77.803                   78.487                   63.655                   68.304                   77.011                   79.272                   80.680                   81.396                   66.439                   72.101                   83.418                   86.568                   88.599                   89.622                   64.127                   68.987                   78.317                   80.815                   82.403                   83.219                   61.199                   65.271                   72.808                   74.763                   75.992                   76.627                   62.721                   67.643                   77.390                   80.072                   81.794                   82.677                   63.472                   68.138                   76.694                   78.943                   80.366                   81.108
12.000                   1.5000                   1.5000                   2000.0                   1000.0                   55.000                   67.382                   71.515                   79.195                   81.197                   82.459                   83.120                   70.250                   75.326                   85.170                   87.831                   89.527                   90.392                   71.560                   77.154                   88.302                   91.395                   93.387                   94.390                   67.547                   71.842                   79.905                   82.025                   83.363                   84.054                   69.245                   73.937                   82.741                   85.033                   86.461                   87.186                   71.985                   77.662                   89.010                   92.169                   94.205                   95.228                   69.543                   74.413                   83.763                   86.265                   87.854                   88.669                   66.417                   70.494                   78.032                   79.985                   81.213                   81.846                   67.926                   72.856                   82.613                   85.298                   87.020                   87.902                   68.706                   73.371                   81.935                   84.186                   85.610                   86.351
12.000                   1.5000                   1.5000                   2000.0                   1000.0                   60.000                   72.795                   76.936                   84.629                   86.635                   87.900                   88.561                   75.707                   80.794                   90.657                   93.324                   95.025                   95.890                   77.046                   82.652                   93.823                   96.924                   98.923                   99.925                   73.074                   77.408                   85.541                   87.677                   89.026                   89.722                   74.933                   79.677                   88.594                   90.917                   92.366                   93.098                   77.523                   83.213                   94.584                   97.751                   99.794                   100.82                   74.967                   79.847                   89.213                   91.721                   93.315                   94.130                   71.677                   75.761                   83.318                   85.279                   86.512                   87.149                   73.138                   78.074                   87.839                   90.527                   92.254                   93.134                   73.921                   78.584                   87.155                   89.408                   90.834                   91.574
12.000                   1.5000                   1.5000                   2000.0                   1000.0                   65.000                   78.207                   82.357                   90.063                   92.074                   93.341                   94.001                   81.165                   86.262                   96.143                   98.816                   100.52                   101.39                   82.531                   88.151                   99.344                   102.45                   104.46                   105.46                   78.601                   82.974                   91.176                   93.330                   94.690                   95.390                   80.620                   85.417                   94.448                   96.802                   98.270                   99.009                   83.061                   88.764                   100.16                   103.33                   105.38                   106.41                   80.390                   85.280                   94.663                   97.177                   98.776                   99.591                   76.938                   81.029                   88.604                   90.572                   91.812                   92.453                   78.351                   83.293                   93.065                   95.757                   97.487                   98.367                   79.136                   83.797                   92.374                   94.631                   96.058                   96.798
12.000                   1.5000                   1.5000                   2000.0                   1000.0                   70.000                   83.620                   87.777                   95.498                   97.512                   98.782                   99.441                   86.622                   91.730                   101.63                   104.31                   106.02                   106.89                   88.017                   93.649                   104.86                   107.98                   109.99                   111.00                   84.128                   88.539                   96.812                   98.982                   100.35                   101.06                   86.307                   91.157                   100.30                   102.69                   104.17                   104.92                   88.599                   94.314                   105.73                   108.92                   110.97                   111.99                   85.814                   90.713                   100.11                   102.63                   104.24                   105.05                   82.199                   86.297                   93.890                   95.866                   97.112                   97.756                   83.563                   88.511                   98.291                   100.99                   102.72                   103.60                   84.350                   89.009                   97.594                   99.853                   101.28                   102.02
12.000                   1.5000                   1.5000                   2000.0                   1000.0                   75.000                   89.032                   93.198                   100.93                   102.95                   104.22                   104.88                   92.080                   97.198                   107.12                   109.80                   111.52                   112.38                   93.503                   99.147                   110.38                   113.51                   115.53                   116.53                   89.655                   94.105                   102.45                   104.63                   106.02                   106.73                   91.995                   96.897                   106.15                   108.57                   110.08                   110.83                   94.137                   99.865                   111.31                   114.50                   116.56                   117.58                   91.238                   96.146                   105.56                   108.09                   109.70                   110.51                   87.459                   91.565                   99.176                   101.16                   102.41                   103.06                   88.776                   93.730                   103.52                   106.22                   107.95                   108.83                   89.565                   94.222                   102.81                   105.08                   106.51                   107.24