% Model:              batchmodel_COIL_N_12_COIL_kr_2.25_COIL_kh_1.5_FUNZ_freq_6000_FUNZ_I_eff_1000.mph
% Version:            COMSOL 6.0.0.318
% Date:               Feb 8 2022, 19:11
% Table:              Tabella 1 - GRIGLIA_T
% COIL_N                 COIL_kr                  COIL_kh                  FUNZ_freq                FUNZ_I_eff               Time (s)                 Temperatura (degC), Point: (0, 0)Temperatura (degC), Point: (15, 0)Temperatura (degC), Point: (27.483, 0)Temperatura (degC), Point: (28.742, 0)Temperatura (degC), Point: (29.497, 0)Temperatura (degC), Point: (29.99, 0)Temperatura (degC), Point: (0, 62.5)Temperatura (degC), Point: (15, 62.5)Temperatura (degC), Point: (27.483, 62.5)Temperatura (degC), Point: (28.742, 62.5)Temperatura (degC), Point: (29.497, 62.5)Temperatura (degC), Point: (29.99, 62.5)Temperatura (degC), Point: (0, 125)Temperatura (degC), Point: (15, 125)Temperatura (degC), Point: (27.483, 125)Temperatura (degC), Point: (28.742, 125)Temperatura (degC), Point: (29.497, 125)Temperatura (degC), Point: (29.99, 125)Temperatura (degC), Point: (0, 187.5)Temperatura (degC), Point: (15, 187.5)Temperatura (degC), Point: (27.483, 187.5)Temperatura (degC), Point: (28.742, 187.5)Temperatura (degC), Point: (29.497, 187.5)Temperatura (degC), Point: (29.99, 187.5)Temperatura (degC), Point: (0, 250)Temperatura (degC), Point: (15, 250)Temperatura (degC), Point: (27.483, 250)Temperatura (degC), Point: (28.742, 250)Temperatura (degC), Point: (29.497, 250)Temperatura (degC), Point: (29.99, 250)Temperatura (degC), Point: (0, 312.5)Temperatura (degC), Point: (15, 312.5)Temperatura (degC), Point: (27.483, 312.5)Temperatura (degC), Point: (28.742, 312.5)Temperatura (degC), Point: (29.497, 312.5)Temperatura (degC), Point: (29.99, 312.5)Temperatura (degC), Point: (0, 375)Temperatura (degC), Point: (15, 375)Temperatura (degC), Point: (27.483, 375)Temperatura (degC), Point: (28.742, 375)Temperatura (degC), Point: (29.497, 375)Temperatura (degC), Point: (29.99, 375)Temperatura (degC), Point: (0, 437.5)Temperatura (degC), Point: (15, 437.5)Temperatura (degC), Point: (27.483, 437.5)Temperatura (degC), Point: (28.742, 437.5)Temperatura (degC), Point: (29.497, 437.5)Temperatura (degC), Point: (29.99, 437.5)Temperatura (degC), Point: (0, 468.75)Temperatura (degC), Point: (15, 468.75)Temperatura (degC), Point: (27.483, 468.75)Temperatura (degC), Point: (28.742, 468.75)Temperatura (degC), Point: (29.497, 468.75)Temperatura (degC), Point: (29.99, 468.75)Temperatura (degC), Point: (0, 492.19)Temperatura (degC), Point: (15, 492.19)Temperatura (degC), Point: (27.483, 492.19)Temperatura (degC), Point: (28.742, 492.19)Temperatura (degC), Point: (29.497, 492.19)Temperatura (degC), Point: (29.99, 492.19)
12.000                   2.2500                   1.5000                   6000.0                   1000.0                   0.0000                   20.000                   20.000                   20.000                   20.000                   20.001                   20.062                   20.000                   20.000                   20.000                   20.000                   20.001                   20.068                   20.000                   20.000                   20.000                   20.000                   20.001                   20.071                   20.000                   20.000                   20.000                   20.000                   20.001                   20.063                   20.000                   20.000                   20.000                   20.000                   20.001                   20.064                   20.000                   20.000                   20.000                   20.000                   20.001                   20.072                   20.000                   20.000                   20.000                   20.000                   20.001                   20.067                   20.000                   20.000                   20.000                   20.000                   20.001                   20.062                   20.000                   20.000                   20.000                   20.000                   20.001                   20.067                   20.000                   20.000                   20.000                   20.000                   20.001                   20.054
12.000                   2.2500                   1.5000                   6000.0                   1000.0                   5.0000                   20.911                   23.240                   35.230                   37.338                   38.687                   39.396                   20.981                   23.542                   37.106                   39.568                   41.159                   42.002                   21.019                   23.702                   38.031                   40.644                   42.314                   43.180                   20.926                   23.315                   35.877                   38.152                   39.621                   40.404                   20.938                   23.363                   36.146                   38.460                   39.953                   40.747                   21.020                   23.705                   38.038                   40.654                   42.348                   43.240                   20.970                   23.495                   36.856                   39.282                   40.850                   41.682                   20.897                   23.193                   35.013                   37.084                   38.405                   39.080                   21.034                   23.557                   36.689                   39.067                   40.605                   41.423                   22.538                   28.591                   55.203                   60.280                   62.064                   62.757
12.000                   2.2500                   1.5000                   6000.0                   1000.0                   10.000                   25.372                   30.380                   45.669                   47.856                   49.217                   49.918                   25.731                   31.234                   48.576                   51.160                   52.787                   53.631                   25.928                   31.699                   50.143                   52.929                   54.606                   55.437                   25.452                   30.588                   46.591                   48.958                   50.446                   51.224                   25.509                   30.725                   47.035                   49.450                   50.969                   51.760                   25.922                   31.681                   49.993                   52.742                   54.477                   55.370                   25.669                   31.098                   48.220                   50.773                   52.382                   53.216                   25.334                   30.290                   45.496                   47.687                   49.046                   49.713                   26.794                   32.526                   49.899                   52.446                   54.049                   54.879                   34.725                   48.953                   87.777                   92.201                   93.228                   93.817
12.000                   2.2500                   1.5000                   6000.0                   1000.0                   15.000                   32.052                   38.646                   55.667                   58.001                   59.452                   60.207                   32.752                   39.949                   58.888                   61.530                   63.180                   64.028                   33.156                   40.705                   60.906                   63.812                   65.567                   66.402                   32.205                   38.945                   56.486                   58.912                   60.426                   61.210                   32.313                   39.147                   56.976                   59.445                   60.985                   61.781                   33.129                   40.648                   60.615                   63.423                   65.180                   66.077                   32.628                   39.728                   58.396                   60.996                   62.619                   63.454                   32.088                   38.682                   55.920                   58.318                   59.802                   60.504                   36.169                   44.069                   63.876                   66.558                   68.227                   69.080                   52.661                   71.964                   116.01                   120.15                   121.29                   121.95
12.000                   2.2500                   1.5000                   6000.0                   1000.0                   20.000                   40.374                   47.565                   65.233                   67.626                   69.117                   69.892                   41.343                   49.156                   68.668                   71.341                   73.007                   73.858                   41.908                   50.085                   70.817                   73.727                   75.516                   76.361                   40.577                   47.912                   66.007                   68.460                   69.987                   70.774                   40.719                   48.146                   66.514                   69.009                   70.561                   71.359                   41.862                   50.013                   70.566                   73.405                   75.179                   76.078                   41.185                   48.899                   68.102                   70.721                   72.353                   73.188                   40.997                   48.329                   66.682                   69.226                   70.808                   71.551                   49.167                   58.119                   79.093                   81.833                   83.529                   84.387                   73.178                   94.619                   142.22                   146.47                   147.86                   148.57
12.000                   2.2500                   1.5000                   6000.0                   1000.0                   25.000                   48.817                   56.536                   74.785                   77.232                   78.758                   79.552                   50.043                   58.398                   78.427                   81.129                   82.811                   83.665                   50.761                   59.488                   80.688                   83.599                   85.416                   86.273                   49.067                   56.926                   75.520                   77.999                   79.539                   80.328                   49.238                   57.188                   76.039                   78.557                   80.121                   80.922                   50.695                   59.401                   80.480                   83.349                   85.139                   86.041                   49.857                   58.111                   77.795                   80.434                   82.075                   82.909                   50.098                   58.097                   77.470                   80.149                   81.821                   82.603                   62.449                   72.350                   94.367                   97.158                   98.878                   99.740                   93.770                   117.13                   168.11                   172.47                   174.07                   174.83
12.000                   2.2500                   1.5000                   6000.0                   1000.0                   30.000                   57.917                   65.805                   84.313                   86.788                   88.333                   89.130                   59.318                   67.834                   88.103                   90.831                   92.529                   93.387                   60.132                   69.009                   90.401                   93.311                   95.119                   95.986                   58.188                   66.209                   85.035                   87.536                   89.089                   89.881                   58.366                   66.469                   85.522                   88.058                   89.634                   90.436                   60.044                   68.908                   90.218                   93.112                   94.917                   95.823                   59.136                   67.557                   87.469                   90.129                   91.782                   92.619                   60.306                   68.572                   88.396                   91.134                   92.848                   93.650                   77.299                   87.539                   109.86                   112.66                   114.38                   115.23                   114.54                   138.59                   191.80                   196.19                   197.82                   198.57
12.000                   2.2500                   1.5000                   6000.0                   1000.0                   35.000                   67.116                   75.150                   93.906                   96.410                   97.973                   98.774                   68.667                   77.324                   97.832                   100.59                   102.30                   103.17                   69.561                   78.569                   100.16                   103.08                   104.88                   105.76                   67.401                   75.563                   94.620                   97.147                   98.715                   99.510                   67.577                   75.811                   95.067                   97.625                   99.213                   100.02                   69.444                   78.444                   99.982                   102.90                   104.72                   105.64                   68.475                   77.034                   97.157                   99.840                   101.51                   102.35                   70.669                   79.138                   99.313                   102.10                   103.85                   104.67                   92.126                   102.62                   125.12                   127.91                   129.62                   130.47                   134.72                   159.31                   214.34                   218.70                   220.37                   221.09
12.000                   2.2500                   1.5000                   6000.0                   1000.0                   40.000                   76.610                   84.722                   103.69                   106.23                   107.81                   108.61                   78.241                   86.974                   107.72                   110.51                   112.25                   113.12                   79.166                   88.245                   110.07                   113.02                   114.83                   115.72                   76.889                   85.128                   104.41                   106.98                   108.57                   109.37                   77.037                   85.338                   104.80                   107.38                   108.99                   109.80                   78.996                   88.063                   109.82                   112.78                   114.62                   115.54                   77.996                   86.604                   106.89                   109.60                   111.28                   112.13                   81.493                   89.972                   110.20                   113.02                   114.80                   115.63                   106.89                   117.36                   139.68                   142.43                   144.13                   144.96                   153.16                   177.87                   233.44                   237.63                   239.31                   240.02
12.000                   2.2500                   1.5000                   6000.0                   1000.0                   45.000                   86.104                   94.294                   113.48                   116.04                   117.64                   118.45                   87.815                   96.625                   117.60                   120.43                   122.19                   123.07                   88.771                   97.922                   119.98                   122.95                   124.78                   125.68                   86.378                   94.693                   114.21                   116.81                   118.42                   119.23                   86.497                   94.866                   114.52                   117.14                   118.77                   119.59                   88.548                   97.682                   119.66                   122.65                   124.52                   125.44                   87.516                   96.174                   116.62                   119.36                   121.06                   121.91                   92.318                   100.81                   121.09                   123.94                   125.75                   126.59                   121.65                   132.10                   154.24                   156.96                   158.63                   159.45                   171.60                   196.43                   252.55                   256.56                   258.25                   258.94
12.000                   2.2500                   1.5000                   6000.0                   1000.0                   50.000                   95.598                   103.87                   123.27                   125.86                   127.48                   128.29                   97.389                   106.27                   127.48                   130.35                   132.14                   133.02                   98.376                   107.60                   129.88                   132.89                   134.73                   135.64                   95.866                   104.26                   124.00                   126.64                   128.27                   129.09                   95.958                   104.39                   124.25                   126.90                   128.55                   129.37                   98.101                   107.30                   129.50                   132.53                   134.42                   135.35                   97.036                   105.74                   126.35                   129.12                   130.84                   131.70                   103.14                   111.64                   131.98                   134.86                   136.70                   137.55                   136.40                   146.85                   168.81                   171.49                   173.13                   173.93                   190.04                   214.98                   271.66                   275.49                   277.20                   277.87
12.000                   2.2500                   1.5000                   6000.0                   1000.0                   55.000                   105.18                   113.53                   133.17                   135.79                   137.43                   138.24                   107.03                   116.00                   137.46                   140.37                   142.18                   143.07                   108.04                   117.36                   139.93                   142.98                   144.85                   145.77                   105.44                   113.91                   133.91                   136.58                   138.24                   139.06                   105.50                   114.01                   134.11                   136.79                   138.46                   139.29                   107.69                   116.97                   139.41                   142.48                   144.40                   145.33                   106.61                   115.38                   136.18                   138.98                   140.72                   141.58                   114.05                   122.53                   142.87                   145.76                   147.62                   148.47                   150.73                   161.10                   182.81                   185.45                   187.07                   187.86                   207.31                   232.26                   289.14                   292.84                   294.52                   295.16
12.000                   2.2500                   1.5000                   6000.0                   1000.0                   60.000                   114.85                   123.29                   143.17                   145.83                   147.48                   148.30                   116.73                   125.79                   147.53                   150.47                   152.31                   153.21                   117.77                   127.18                   150.10                   153.22                   155.11                   156.04                   115.09                   123.65                   143.91                   146.62                   148.31                   149.14                   115.11                   123.72                   144.07                   146.80                   148.49                   149.33                   117.32                   126.69                   149.40                   152.51                   154.45                   155.39                   116.23                   125.06                   146.09                   148.93                   150.69                   151.56                   125.02                   133.48                   153.77                   156.66                   158.52                   159.36                   164.66                   174.92                   196.32                   198.91                   200.51                   201.28                   223.55                   248.40                   305.18                   308.80                   310.40                   311.00
12.000                   2.2500                   1.5000                   6000.0                   1000.0                   65.000                   124.51                   133.04                   153.17                   155.86                   157.54                   158.36                   126.43                   135.59                   157.59                   160.58                   162.44                   163.34                   127.49                   137.01                   160.27                   163.45                   165.38                   166.32                   124.73                   133.39                   153.91                   156.66                   158.37                   159.21                   124.72                   133.42                   154.03                   156.80                   158.52                   159.36                   126.95                   136.41                   159.38                   162.53                   164.50                   165.45                   125.85                   134.75                   156.01                   158.87                   160.66                   161.53                   135.99                   144.42                   164.67                   167.56                   169.42                   170.25                   178.60                   188.73                   209.82                   212.38                   213.94                   214.69                   239.79                   264.53                   321.22                   324.75                   326.27                   326.83
12.000                   2.2500                   1.5000                   6000.0                   1000.0                   70.000                   134.17                   142.79                   163.17                   165.90                   167.59                   168.42                   136.13                   145.38                   167.66                   170.68                   172.57                   173.48                   137.21                   146.84                   170.44                   173.68                   175.64                   176.60                   134.38                   143.13                   163.92                   166.71                   168.44                   169.29                   134.33                   143.12                   164.00                   166.80                   168.55                   169.40                   136.58                   146.13                   169.37                   172.56                   174.55                   175.50                   135.46                   144.44                   165.92                   168.82                   170.63                   171.51                   146.97                   155.37                   175.57                   178.46                   180.31                   181.13                   192.53                   202.55                   223.33                   225.84                   227.38                   228.11                   256.02                   280.67                   337.26                   340.71                   342.15                   342.67
12.000                   2.2500                   1.5000                   6000.0                   1000.0                   75.000                   144.02                   152.76                   173.47                   176.24                   177.96                   178.80                   145.99                   155.38                   178.00                   181.07                   182.99                   183.91                   147.07                   156.83                   180.72                   184.00                   186.00                   186.97                   144.21                   153.09                   174.21                   177.05                   178.82                   179.67                   144.15                   153.07                   174.32                   177.18                   178.96                   179.82                   146.40                   156.09                   179.70                   182.94                   184.97                   185.94                   145.36                   154.49                   176.38                   179.34                   181.19                   182.09                   158.12                   166.66                   187.22                   190.13                   191.99                   192.82                   203.82                   213.74                   234.90                   237.53                   239.15                   239.92                   263.57                   285.49                   334.43                   337.58                   338.97                   339.50