% Model:              batchmodel_COIL_N_12_COIL_kr_2.25_COIL_kh_1.5_FUNZ_freq_2000_FUNZ_I_eff_2500.mph
% Version:            COMSOL 6.0.0.318
% Date:               Feb 8 2022, 19:14
% Table:              Tabella 1 - GRIGLIA_T
% COIL_N                 COIL_kr                  COIL_kh                  FUNZ_freq                FUNZ_I_eff               Time (s)                 Temperatura (degC), Point: (0, 0)Temperatura (degC), Point: (15, 0)Temperatura (degC), Point: (25.641, 0)Temperatura (degC), Point: (27.821, 0)Temperatura (degC), Point: (29.128, 0)Temperatura (degC), Point: (29.99, 0)Temperatura (degC), Point: (0, 62.5)Temperatura (degC), Point: (15, 62.5)Temperatura (degC), Point: (25.641, 62.5)Temperatura (degC), Point: (27.821, 62.5)Temperatura (degC), Point: (29.128, 62.5)Temperatura (degC), Point: (29.99, 62.5)Temperatura (degC), Point: (0, 125)Temperatura (degC), Point: (15, 125)Temperatura (degC), Point: (25.641, 125)Temperatura (degC), Point: (27.821, 125)Temperatura (degC), Point: (29.128, 125)Temperatura (degC), Point: (29.99, 125)Temperatura (degC), Point: (0, 187.5)Temperatura (degC), Point: (15, 187.5)Temperatura (degC), Point: (25.641, 187.5)Temperatura (degC), Point: (27.821, 187.5)Temperatura (degC), Point: (29.128, 187.5)Temperatura (degC), Point: (29.99, 187.5)Temperatura (degC), Point: (0, 250)Temperatura (degC), Point: (15, 250)Temperatura (degC), Point: (25.641, 250)Temperatura (degC), Point: (27.821, 250)Temperatura (degC), Point: (29.128, 250)Temperatura (degC), Point: (29.99, 250)Temperatura (degC), Point: (0, 312.5)Temperatura (degC), Point: (15, 312.5)Temperatura (degC), Point: (25.641, 312.5)Temperatura (degC), Point: (27.821, 312.5)Temperatura (degC), Point: (29.128, 312.5)Temperatura (degC), Point: (29.99, 312.5)Temperatura (degC), Point: (0, 375)Temperatura (degC), Point: (15, 375)Temperatura (degC), Point: (25.641, 375)Temperatura (degC), Point: (27.821, 375)Temperatura (degC), Point: (29.128, 375)Temperatura (degC), Point: (29.99, 375)Temperatura (degC), Point: (0, 437.5)Temperatura (degC), Point: (15, 437.5)Temperatura (degC), Point: (25.641, 437.5)Temperatura (degC), Point: (27.821, 437.5)Temperatura (degC), Point: (29.128, 437.5)Temperatura (degC), Point: (29.99, 437.5)Temperatura (degC), Point: (0, 468.75)Temperatura (degC), Point: (15, 468.75)Temperatura (degC), Point: (25.641, 468.75)Temperatura (degC), Point: (27.821, 468.75)Temperatura (degC), Point: (29.128, 468.75)Temperatura (degC), Point: (29.99, 468.75)Temperatura (degC), Point: (0, 492.19)Temperatura (degC), Point: (15, 492.19)Temperatura (degC), Point: (25.641, 492.19)Temperatura (degC), Point: (27.821, 492.19)Temperatura (degC), Point: (29.128, 492.19)Temperatura (degC), Point: (29.99, 492.19)
12.000                   2.2500                   1.5000                   2000.0                   2500.0                   0.0000                   20.000                   20.000                   20.000                   20.000                   20.005                   20.069                   20.000                   20.000                   20.000                   20.000                   20.006                   20.075                   20.000                   20.000                   20.000                   20.000                   20.007                   20.078                   20.000                   20.000                   20.000                   20.000                   20.005                   20.070                   20.000                   20.000                   20.000                   20.000                   20.005                   20.071                   20.000                   20.000                   20.000                   20.000                   20.007                   20.079                   20.000                   20.000                   20.000                   20.000                   20.006                   20.074                   20.000                   20.000                   20.000                   20.000                   20.005                   20.069                   20.000                   20.000                   20.000                   20.000                   20.006                   20.072                   20.000                   20.000                   20.000                   20.000                   20.003                   20.057
12.000                   2.2500                   1.5000                   2000.0                   2500.0                   5.0000                   21.931                   27.310                   48.604                   56.619                   62.170                   64.758                   22.128                   28.195                   52.576                   61.789                   68.100                   70.951                   22.246                   28.718                   54.741                   64.465                   71.061                   74.015                   21.987                   27.566                   49.840                   58.269                   64.065                   66.719                   22.109                   28.045                   51.556                   60.289                   66.209                   68.898                   22.333                   29.035                   55.808                   65.702                   72.359                   75.355                   22.175                   28.342                   52.945                   62.102                   68.311                   71.112                   22.065                   27.852                   50.606                   58.984                   64.681                   67.264                   22.021                   27.882                   51.531                   60.380                   66.382                   69.102                   21.394                   25.495                   42.850                   49.320                   53.662                   55.705
12.000                   2.2500                   1.5000                   2000.0                   2500.0                   10.000                   33.030                   45.296                   75.839                   85.295                   91.468                   94.177                   33.918                   47.310                   80.683                   90.905                   97.529                   100.40                   34.466                   48.548                   83.811                   94.605                   101.59                   104.57                   33.230                   45.739                   76.820                   86.341                   92.534                   95.267                   33.760                   46.750                   78.726                   88.448                   94.764                   97.543                   34.847                   49.226                   85.084                   96.029                   103.13                   106.18                   34.072                   47.475                   80.663                   90.726                   97.133                   99.938                   33.328                   45.828                   76.434                   85.713                   91.760                   94.341                   32.811                   45.256                   76.435                   86.001                   92.163                   94.871                   31.293                   41.384                   64.933                   71.753                   76.069                   78.081
12.000                   2.2500                   1.5000                   2000.0                   2500.0                   15.000                   49.876                   66.055                   100.54                   110.39                   116.66                   119.34                   51.435                   68.829                   106.13                   116.82                   123.73                   126.64                   52.394                   70.515                   109.65                   120.87                   128.10                   131.15                   50.223                   66.701                   102.05                   112.21                   118.77                   121.51                   51.077                   67.939                   103.84                   114.11                   120.77                   123.54                   52.942                   71.150                   110.07                   121.16                   128.15                   131.10                   51.728                   69.178                   106.79                   117.51                   124.50                   127.39                   49.985                   66.130                   100.38                   110.10                   116.36                   119.14                   48.582                   64.499                   98.989                   108.92                   115.29                   118.07                   46.187                   59.583                   86.433                   93.835                   98.633                   100.75
12.000                   2.2500                   1.5000                   2000.0                   2500.0                   20.000                   70.896                   88.932                   126.33                   137.09                   143.79                   146.54                   72.954                   92.180                   131.97                   143.18                   150.30                   153.27                   74.251                   94.306                   136.55                   148.49                   156.06                   159.18                   71.412                   89.779                   127.92                   138.76                   145.63                   148.47                   72.305                   90.875                   129.06                   139.83                   146.71                   149.46                   74.681                   94.643                   136.35                   148.10                   155.24                   158.19                   73.408                   92.722                   132.98                   144.22                   151.38                   154.28                   70.428                   88.276                   125.06                   135.40                   141.99                   144.81                   67.981                   85.536                   122.57                   133.16                   139.67                   142.45                   66.126                   81.201                   110.30                   118.18                   123.20                   125.33
12.000                   2.2500                   1.5000                   2000.0                   2500.0                   25.000                   92.652                   112.08                   151.53                   162.78                   169.79                   172.61                   95.120                   115.74                   157.60                   169.30                   176.71                   179.74                   96.676                   118.13                   162.45                   174.90                   182.77                   185.94                   93.316                   113.08                   153.23                   164.53                   171.66                   174.57                   94.199                   114.07                   154.15                   165.36                   172.48                   175.30                   97.001                   118.30                   162.10                   174.40                   181.92                   184.96                   95.668                   116.33                   158.45                   170.12                   177.51                   180.46                   91.492                   110.60                   149.21                   159.98                   166.83                   169.67                   87.856                   106.54                   145.16                   156.12                   162.87                   165.68                   85.449                   101.42                   131.47                   139.46                   144.51                   146.64
12.000                   2.2500                   1.5000                   2000.0                   2500.0                   30.000                   115.20                   135.50                   176.11                   187.39                   194.58                   197.47                   117.98                   139.52                   182.98                   195.16                   202.95                   206.06                   119.71                   142.01                   187.28                   200.00                   208.15                   211.36                   115.98                   136.63                   177.97                   189.45                   196.78                   199.73                   116.81                   137.56                   179.12                   190.69                   198.09                   201.06                   119.94                   142.13                   187.28                   200.02                   208.17                   211.38                   118.55                   140.02                   183.15                   195.16                   202.83                   205.89                   113.22                   133.11                   172.80                   183.80                   190.83                   193.68                   108.24                   127.51                   166.68                   177.71                   184.80                   187.68                   104.11                   120.15                   149.77                   157.48                   162.33                   164.44
12.000                   2.2500                   1.5000                   2000.0                   2500.0                   35.000                   138.32                   159.52                   201.75                   213.43                   220.74                   223.65                   141.36                   163.86                   209.34                   222.15                   230.35                   233.53                   143.20                   166.38                   213.35                   226.60                   235.07                   238.33                   139.24                   160.83                   204.04                   216.10                   223.74                   226.75                   140.00                   161.70                   205.20                   217.36                   225.10                   228.17                   143.32                   166.37                   213.04                   226.16                   234.57                   237.85                   141.99                   164.41                   209.52                   222.13                   230.13                   233.26                   135.43                   156.18                   197.54                   209.02                   216.33                   219.21                   129.00                   148.96                   189.57                   201.04                   208.41                   211.35                   123.69                   140.07                   170.11                   177.84                   182.65                   184.77
12.000                   2.2500                   1.5000                   2000.0                   2500.0                   40.000                   161.92                   184.07                   228.23                   240.47                   247.98                   250.96                   165.18                   188.67                   236.28                   249.77                   258.38                   261.64                   167.08                   191.17                   240.13                   253.99                   262.83                   266.16                   162.99                   185.54                   230.79                   243.45                   251.42                   254.50                   163.72                   186.41                   232.00                   244.79                   252.88                   256.04                   167.04                   190.96                   239.33                   252.92                   261.51                   264.85                   165.84                   189.23                   236.49                   249.72                   258.04                   261.25                   158.07                   179.70                   222.92                   234.95                   242.59                   245.53                   150.22                   170.94                   213.28                   225.29                   232.96                   235.95                   144.01                   160.82                   191.61                   199.49                   204.34                   206.48
12.000                   2.2500                   1.5000                   2000.0                   2500.0                   45.000                   186.37                   209.52                   256.14                   269.19                   277.10                   280.21                   189.74                   214.24                   264.19                   278.37                   287.38                   290.75                   191.62                   216.69                   268.04                   282.67                   291.94                   295.35                   187.57                   211.13                   258.58                   271.85                   280.14                   283.35                   188.35                   212.11                   260.00                   273.44                   281.89                   285.15                   191.33                   216.13                   266.55                   280.74                   289.47                   292.87                   190.38                   214.75                   264.31                   278.15                   286.78                   290.06                   181.44                   203.98                   249.35                   262.03                   270.05                   273.10                   172.24                   193.81                   238.29                   250.98                   259.00                   262.05                   165.57                   182.97                   214.96                   223.18                   228.20                   230.36
12.000                   2.2500                   1.5000                   2000.0                   2500.0                   50.000                   210.81                   234.97                   284.05                   297.91                   306.21                   309.46                   214.30                   239.82                   292.09                   306.98                   316.38                   319.87                   216.16                   242.21                   295.96                   311.34                   321.05                   324.54                   212.16                   236.72                   286.37                   300.25                   308.87                   312.19                   212.98                   237.80                   288.00                   302.08                   310.90                   314.25                   215.63                   241.30                   293.76                   308.56                   317.43                   320.88                   214.92                   240.28                   292.14                   306.57                   315.51                   318.87                   204.81                   228.27                   275.78                   289.11                   297.52                   300.66                   194.26                   216.68                   263.30                   276.66                   285.04                   288.16                   187.12                   205.12                   238.31                   246.87                   252.06                   254.25
12.000                   2.2500                   1.5000                   2000.0                   2500.0                   55.000                   235.26                   260.40                   311.80                   326.41                   335.11                   338.47                   238.86                   265.36                   319.87                   335.43                   345.22                   348.79                   240.72                   267.72                   323.77                   339.87                   349.99                   353.55                   236.74                   262.28                   314.06                   328.56                   337.53                   340.94                   237.59                   263.43                   315.85                   330.56                   339.76                   343.18                   239.96                   266.53                   321.10                   336.54                   345.65                   349.16                   239.43                   265.74                   319.78                   334.83                   344.10                   347.53                   228.15                   252.50                   302.03                   315.98                   324.75                   327.98                   216.17                   239.37                   287.87                   301.81                   310.50                   313.68                   208.30                   226.80                   260.99                   269.85                   275.20                   277.41
12.000                   2.2500                   1.5000                   2000.0                   2500.0                   60.000                   259.74                   285.74                   338.88                   353.99                   363.14                   366.51                   263.42                   290.77                   347.15                   363.28                   373.39                   376.95                   265.30                   293.18                   351.13                   367.80                   378.25                   381.84                   261.31                   287.69                   341.38                   356.51                   365.90                   369.32                   262.13                   288.79                   343.08                   358.40                   367.97                   371.40                   264.47                   292.01                   348.89                   365.13                   374.91                   378.47                   263.82                   290.94                   346.70                   362.39                   372.09                   375.55                   251.39                   276.48                   327.57                   342.00                   351.06                   354.32                   237.68                   261.34                   310.61                   324.77                   333.65                   336.85                   227.93                   246.55                   280.99                   289.96                   295.44                   297.64
12.000                   2.2500                   1.5000                   2000.0                   2500.0                   65.000                   284.23                   311.07                   365.96                   381.57                   391.18                   394.55                   287.98                   316.18                   374.43                   391.12                   401.55                   405.12                   289.88                   318.65                   378.49                   395.74                   406.51                   410.14                   285.88                   313.10                   368.71                   384.46                   394.26                   397.69                   286.67                   314.15                   370.31                   386.24                   396.18                   399.62                   288.98                   317.50                   376.69                   393.72                   404.18                   407.79                   288.22                   316.14                   373.62                   389.95                   400.09                   403.58                   274.63                   300.45                   353.11                   368.01                   377.36                   380.65                   259.18                   283.31                   333.36                   347.74                   356.79                   360.01                   247.56                   266.29                   300.99                   310.07                   315.68                   317.87
12.000                   2.2500                   1.5000                   2000.0                   2500.0                   70.000                   308.70                   336.38                   393.03                   409.14                   419.19                   422.58                   312.51                   341.57                   401.69                   418.96                   429.71                   433.28                   314.43                   344.09                   405.81                   423.64                   434.74                   438.40                   310.43                   338.50                   396.03                   412.42                   422.64                   426.07                   311.19                   339.49                   397.52                   414.07                   424.38                   427.83                   313.47                   342.95                   404.42                   422.23                   433.34                   437.00                   312.59                   341.33                   400.55                   417.52                   428.10                   431.62                   297.85                   324.42                   378.65                   394.04                   403.68                   406.98                   280.68                   305.28                   356.14                   370.75                   379.99                   383.22                   267.21                   286.07                   321.05                   330.23                   335.97                   338.16
12.000                   2.2500                   1.5000                   2000.0                   2500.0                   75.000                   332.81                   361.33                   419.86                   436.53                   446.85                   450.26                   336.69                   366.59                   428.71                   446.64                   457.75                   461.34                   338.61                   369.06                   432.60                   451.02                   462.43                   466.11                   334.72                   363.70                   423.41                   440.54                   451.15                   454.60                   335.35                   364.49                   424.53                   441.76                   452.39                   455.84                   337.59                   367.90                   431.18                   449.48                   460.79                   464.46                   336.71                   366.35                   427.71                   445.37                   456.32                   459.85                   320.81                   348.19                   404.25                   420.18                   430.08                   433.40                   301.93                   327.14                   379.46                   394.52                   403.95                   407.20                   287.23                   306.45                   342.08                   351.44                   357.26                   359.44