% Model:              batchmodel_COIL_N_12_COIL_kr_1.5_COIL_kh_2_FUNZ_freq_2000_FUNZ_I_eff_4000.mph
% Version:            COMSOL 6.0.0.318
% Date:               Feb 8 2022, 18:46
% Table:              Tabella 1 - GRIGLIA_T
% COIL_N                 COIL_kr                  COIL_kh                  FUNZ_freq                FUNZ_I_eff               Time (s)                 Temperatura (degC), Point: (0, 0)Temperatura (degC), Point: (15, 0)Temperatura (degC), Point: (25.641, 0)Temperatura (degC), Point: (27.821, 0)Temperatura (degC), Point: (29.128, 0)Temperatura (degC), Point: (29.99, 0)Temperatura (degC), Point: (0, 62.5)Temperatura (degC), Point: (15, 62.5)Temperatura (degC), Point: (25.641, 62.5)Temperatura (degC), Point: (27.821, 62.5)Temperatura (degC), Point: (29.128, 62.5)Temperatura (degC), Point: (29.99, 62.5)Temperatura (degC), Point: (0, 125)Temperatura (degC), Point: (15, 125)Temperatura (degC), Point: (25.641, 125)Temperatura (degC), Point: (27.821, 125)Temperatura (degC), Point: (29.128, 125)Temperatura (degC), Point: (29.99, 125)Temperatura (degC), Point: (0, 187.5)Temperatura (degC), Point: (15, 187.5)Temperatura (degC), Point: (25.641, 187.5)Temperatura (degC), Point: (27.821, 187.5)Temperatura (degC), Point: (29.128, 187.5)Temperatura (degC), Point: (29.99, 187.5)Temperatura (degC), Point: (0, 250)Temperatura (degC), Point: (15, 250)Temperatura (degC), Point: (25.641, 250)Temperatura (degC), Point: (27.821, 250)Temperatura (degC), Point: (29.128, 250)Temperatura (degC), Point: (29.99, 250)Temperatura (degC), Point: (0, 312.5)Temperatura (degC), Point: (15, 312.5)Temperatura (degC), Point: (25.641, 312.5)Temperatura (degC), Point: (27.821, 312.5)Temperatura (degC), Point: (29.128, 312.5)Temperatura (degC), Point: (29.99, 312.5)Temperatura (degC), Point: (0, 375)Temperatura (degC), Point: (15, 375)Temperatura (degC), Point: (25.641, 375)Temperatura (degC), Point: (27.821, 375)Temperatura (degC), Point: (29.128, 375)Temperatura (degC), Point: (29.99, 375)Temperatura (degC), Point: (0, 437.5)Temperatura (degC), Point: (15, 437.5)Temperatura (degC), Point: (25.641, 437.5)Temperatura (degC), Point: (27.821, 437.5)Temperatura (degC), Point: (29.128, 437.5)Temperatura (degC), Point: (29.99, 437.5)Temperatura (degC), Point: (0, 468.75)Temperatura (degC), Point: (15, 468.75)Temperatura (degC), Point: (25.641, 468.75)Temperatura (degC), Point: (27.821, 468.75)Temperatura (degC), Point: (29.128, 468.75)Temperatura (degC), Point: (29.99, 468.75)Temperatura (degC), Point: (0, 492.19)Temperatura (degC), Point: (15, 492.19)Temperatura (degC), Point: (25.641, 492.19)Temperatura (degC), Point: (27.821, 492.19)Temperatura (degC), Point: (29.128, 492.19)Temperatura (degC), Point: (29.99, 492.19)
12.000                   1.5000                   2.0000                   2000.0                   4000.0                   0.0000                   20.000                   20.000                   20.000                   20.000                   20.007                   20.068                   20.000                   20.000                   20.000                   20.000                   20.013                   20.102                   20.000                   20.000                   20.000                   20.000                   20.017                   20.120                   20.000                   20.000                   20.000                   20.000                   20.008                   20.079                   20.000                   20.000                   20.000                   20.000                   20.008                   20.077                   20.000                   20.000                   20.000                   20.000                   20.017                   20.119                   20.000                   20.000                   20.000                   20.000                   20.014                   20.104                   20.000                   20.000                   20.000                   20.000                   20.006                   20.068                   20.000                   20.000                   20.000                   20.000                   20.016                   20.115                   20.000                   20.000                   20.000                   20.000                   20.013                   20.104
12.000                   1.5000                   2.0000                   2000.0                   4000.0                   5.0000                   23.256                   33.770                   76.871                   92.629                   103.22                   107.51                   24.219                   38.594                   99.396                   122.12                   137.35                   143.08                   24.769                   41.324                   111.99                   138.59                   156.30                   162.75                   23.575                   35.351                   84.113                   102.03                   114.05                   118.81                   23.523                   35.094                   82.914                   100.46                   112.24                   116.92                   24.740                   41.182                   111.35                   137.76                   155.36                   161.78                   24.279                   38.895                   100.83                   124.01                   139.54                   145.37                   23.238                   33.683                   76.487                   92.129                   102.64                   106.91                   24.533                   40.252                   107.48                   132.81                   149.73                   155.96                   24.822                   39.819                   98.413                   119.70                   133.89                   139.30
12.000                   1.5000                   2.0000                   2000.0                   4000.0                   10.000                   42.370                   68.880                   132.33                   151.39                   163.67                   168.35                   47.598                   81.963                   167.15                   193.78                   210.84                   216.88                   50.580                   89.353                   186.72                   217.56                   237.18                   243.89                   44.112                   73.223                   143.67                   165.07                   178.84                   183.95                   43.827                   72.518                   141.80                   162.80                   176.31                   181.35                   50.414                   88.955                   185.69                   216.32                   235.82                   242.50                   47.915                   82.761                   169.32                   196.43                   213.78                   219.91                   42.244                   68.592                   131.61                   150.52                   162.72                   167.37                   49.141                   85.996                   178.62                   207.96                   226.70                   233.20                   49.873                   84.860                   166.14                   190.55                   206.10                   211.68
12.000                   1.5000                   2.0000                   2000.0                   4000.0                   15.000                   77.499                   113.75                   188.39                   210.13                   223.92                   228.91                   88.286                   133.34                   230.65                   260.39                   279.10                   285.40                   94.429                   144.42                   254.34                   288.49                   309.81                   316.76                   81.101                   120.28                   202.20                   226.36                   241.65                   247.05                   80.512                   119.21                   199.91                   223.66                   238.68                   244.01                   94.079                   143.80                   253.07                   287.00                   308.19                   315.11                   88.925                   134.51                   233.23                   263.46                   282.48                   288.86                   77.172                   113.21                   187.34                   208.90                   222.59                   227.54                   91.176                   138.76                   243.35                   275.83                   296.21                   302.94                   92.620                   137.69                   228.82                   255.43                   272.11                   277.81
12.000                   1.5000                   2.0000                   2000.0                   4000.0                   20.000                   122.83                   163.48                   247.37                   272.05                   287.57                   292.94                   138.14                   187.32                   294.62                   327.84                   348.47                   355.10                   146.86                   200.76                   320.76                   358.56                   381.66                   388.85                   127.95                   171.44                   262.89                   290.20                   307.31                   313.05                   127.11                   170.13                   260.31                   287.15                   303.97                   309.65                   146.35                   200.00                   319.36                   356.95                   379.94                   387.12                   139.03                   188.71                   297.42                   331.15                   352.05                   358.77                   122.24                   162.64                   245.94                   270.41                   285.81                   291.14                   141.80                   193.15                   307.42                   343.39                   365.56                   372.58                   144.18                   192.41                   290.56                   319.53                   337.51                   343.37
12.000                   1.5000                   2.0000                   2000.0                   4000.0                   25.000                   172.34                   215.92                   309.50                   337.32                   354.46                   360.19                   190.22                   242.22                   360.41                   397.42                   419.76                   426.76                   200.38                   257.01                   388.44                   430.34                   455.28                   462.70                   178.32                   224.73                   326.70                   357.71                   376.88                   383.01                   177.33                   223.28                   323.81                   354.26                   373.06                   379.13                   199.78                   256.17                   386.97                   428.67                   453.51                   460.93                   191.22                   243.72                   363.36                   400.88                   423.42                   430.49                   171.44                   214.73                   307.52                   335.04                   352.02                   357.71                   193.88                   247.83                   372.91                   412.68                   436.52                   443.82                   197.11                   247.06                   352.95                   384.53                   403.79                   409.87
12.000                   1.5000                   2.0000                   2000.0                   4000.0                   30.000                   222.53                   269.61                   372.68                   403.36                   421.26                   427.18                   241.75                   297.65                   426.90                   467.34                   490.43                   497.58                   252.70                   313.51                   457.84                   504.31                   531.37                   539.08                   228.97                   279.08                   391.60                   426.13                   446.91                   453.35                   227.90                   277.51                   388.42                   422.21                   442.44                   448.83                   252.03                   312.56                   456.00                   502.15                   528.99                   536.67                   242.80                   299.24                   430.21                   471.32                   494.45                   501.67                   221.30                   268.06                   370.16                   400.44                   418.13                   424.00                   245.01                   302.84                   439.53                   483.30                   508.48                   515.92                   248.62                   301.50                   415.80                   450.06                   470.37                   476.61
12.000                   1.5000                   2.0000                   2000.0                   4000.0                   35.000                   272.62                   323.32                   434.15                   466.96                   484.76                   490.63                   292.44                   352.60                   491.54                   534.78                   557.74                   564.76                   303.75                   369.16                   524.24                   574.13                   602.70                   610.57                   279.28                   333.28                   454.40                   491.50                   513.04                   519.57                   278.18                   331.66                   451.12                   487.37                   508.24                   514.72                   303.01                   368.09                   522.02                   571.44                   599.60                   607.40                   293.48                   354.23                   495.08                   539.08                   561.93                   569.01                   271.07                   321.44                   431.24                   463.64                   481.33                   487.14                   295.09                   357.25                   504.16                   551.20                   576.94                   584.33                   298.54                   354.92                   476.65                   513.06                   533.87                   540.13
12.000                   1.5000                   2.0000                   2000.0                   4000.0                   40.000                   321.88                   375.80                   492.28                   526.49                   544.04                   549.65                   342.43                   406.31                   553.04                   598.61                   621.36                   628.13                   354.11                   423.22                   584.54                   635.74                   664.61                   672.38                   328.80                   386.19                   513.41                   552.02                   573.74                   580.14                   327.67                   384.56                   510.23                   548.12                   569.23                   575.57                   353.31                   422.08                   582.35                   633.04                   661.33                   669.02                   343.45                   407.90                   556.31                   602.48                   625.08                   631.85                   320.02                   373.60                   489.14                   523.05                   540.75                   546.36                   344.56                   410.45                   564.86                   613.95                   639.54                   646.74                   347.60                   407.08                   534.28                   572.07                   592.89                   599.04
12.000                   1.5000                   2.0000                   2000.0                   4000.0                   45.000                   370.09                   427.79                   555.85                   595.27                   616.80                   622.89                   390.39                   457.43                   612.27                   662.07                   688.24                   695.24                   401.89                   473.66                   640.49                   694.82                   725.09                   732.83                   376.94                   437.93                   575.69                   619.11                   643.48                   650.11                   375.84                   436.35                   572.69                   615.47                   639.41                   645.98                   401.07                   472.53                   638.51                   692.45                   722.32                   729.99                   391.35                   458.90                   615.13                   665.40                   691.60                   698.61                   368.02                   425.36                   552.47                   591.52                   613.01                   619.08                   391.93                   460.79                   622.15                   674.72                   702.79                   710.14                   394.19                   456.31                   589.63                   630.28                   652.88                   659.01
12.000                   1.5000                   2.0000                   2000.0                   4000.0                   50.000                   417.11                   478.14                   615.72                   659.42                   684.16                   690.60                   436.95                   506.57                   667.86                   722.13                   752.05                   759.37                   448.20                   522.15                   695.24                   755.47                   788.25                   796.10                   423.80                   487.87                   633.80                   680.97                   707.52                   714.28                   422.73                   486.35                   630.99                   677.58                   703.82                   710.52                   447.37                   521.03                   693.31                   753.13                   785.69                   793.49                   437.84                   507.94                   670.52                   725.40                   755.56                   762.92                   414.86                   475.56                   612.28                   655.60                   680.15                   686.55                   437.85                   509.11                   676.34                   733.49                   764.76                   772.38                   439.27                   503.45                   640.93                   683.65                   707.66                   713.72
12.000                   1.5000                   2.0000                   2000.0                   4000.0                   55.000                   461.95                   525.28                   666.25                   711.12                   736.22                   742.48                   481.23                   552.43                   716.60                   775.26                   808.47                   816.14                   492.26                   567.74                   748.84                   820.12                   857.42                   865.62                   468.43                   534.43                   682.25                   729.97                   756.92                   763.55                   467.40                   532.99                   679.67                   726.82                   753.41                   759.95                   491.43                   566.64                   746.57                   817.10                   854.21                   862.39                   482.07                   553.74                   719.56                   779.48                   813.20                   820.94                   459.59                   522.66                   663.13                   707.80                   732.73                   738.96                   481.45                   554.13                   725.17                   788.73                   823.88                   831.90                   482.01                   547.18                   684.59                   727.22                   751.34                   757.22
12.000                   1.5000                   2.0000                   2000.0                   4000.0                   60.000                   504.03                   567.84                   708.60                   755.58                   782.09                   788.35                   523.04                   594.76                   768.19                   834.07                   868.82                   876.24                   534.01                   610.45                   810.96                   889.89                   927.94                   935.51                   510.39                   576.76                   726.07                   778.16                   806.90                   813.52                   509.37                   575.34                   723.13                   774.30                   802.63                   809.17                   533.17                   609.32                   807.99                   886.20                   924.12                   931.70                   523.85                   596.06                   772.07                   839.31                   874.52                   881.99                   501.57                   565.20                   705.38                   751.81                   778.06                   784.29                   522.51                   595.62                   777.70                   848.66                   885.23                   892.92                   521.99                   586.66                   722.76                   767.65                   792.87                   798.66
12.000                   1.5000                   2.0000                   2000.0                   4000.0                   65.000                   544.07                   607.16                   745.36                   793.48                   820.57                   826.63                   563.09                   634.63                   816.32                   885.81                   919.85                   926.55                   573.93                   650.82                   871.27                   953.34                   989.82                   996.27                   550.37                   616.05                   765.29                   820.45                   849.95                   856.31                   549.35                   614.59                   761.75                   815.65                   844.72                   851.03                   573.54                   651.36                   880.29                   960.91                   995.38                   1001.2                   563.90                   636.04                   821.35                   892.05                   926.39                   933.07                   541.54                   604.54                   742.16                   789.56                   816.40                   822.44                   561.62                   634.39                   826.83                   901.84                   937.81                   944.77                   559.92                   623.16                   756.81                   803.24                   828.81                   834.34
12.000                   1.5000                   2.0000                   2000.0                   4000.0                   70.000                   580.01                   640.17                   771.52                   816.87                   840.95                   846.02                   599.75                   669.82                   850.78                   909.88                   937.57                   942.56                   610.10                   686.29                   918.17                   991.98                   1022.9                   1027.5                   586.41                   649.34                   793.97                   844.55                   870.33                   875.55                   585.34                   647.74                   789.52                   838.99                   864.36                   869.53                   611.62                   693.95                   980.10                   1049.0                   1069.7                   1070.8                   600.64                   671.60                   857.16                   916.95                   944.66                   949.57                   577.50                   637.73                   769.10                   814.58                   838.85                   843.99                   596.77                   667.57                   861.79                   929.21                   960.38                   965.98                   593.78                   653.97                   782.53                   826.11                   848.80                   853.41
12.000                   1.5000                   2.0000                   2000.0                   4000.0                   75.000                   612.35                   668.74                   793.05                   834.14                   855.24                   859.42                   633.42                   701.29                   879.61                   928.56                   950.77                   954.34                   643.64                   722.08                   992.88                   1053.2                   1072.7                   1073.7                   618.99                   678.24                   816.57                   861.22                   883.40                   887.61                   617.81                   676.48                   811.64                   855.43                   877.31                   881.49                   647.34                   736.52                   1048.2                   1098.4                   1109.6                   1108.0                   634.45                   703.61                   887.86                   937.09                   959.10                   962.53                   609.91                   666.61                   792.03                   834.02                   855.64                   859.96                   628.46                   696.28                   887.72                   947.31                   974.45                   978.97                   624.22                   680.68                   804.14                   843.66                   863.61                   867.41