% Model:              batchmodel_COIL_N_20_COIL_kr_3_COIL_kh_1_FUNZ_freq_6000_FUNZ_I_eff_4000.mph
% Version:            COMSOL 6.0.0.318
% Date:               Feb 9 2022, 03:31
% Table:              Tabella 1 - GRIGLIA_T
% COIL_N                 COIL_kr                  COIL_kh                  FUNZ_freq                FUNZ_I_eff               Time (s)                 Temperatura (degC), Point: (0, 0)Temperatura (degC), Point: (15, 0)Temperatura (degC), Point: (27.483, 0)Temperatura (degC), Point: (28.742, 0)Temperatura (degC), Point: (29.497, 0)Temperatura (degC), Point: (29.99, 0)Temperatura (degC), Point: (0, 62.5)Temperatura (degC), Point: (15, 62.5)Temperatura (degC), Point: (27.483, 62.5)Temperatura (degC), Point: (28.742, 62.5)Temperatura (degC), Point: (29.497, 62.5)Temperatura (degC), Point: (29.99, 62.5)Temperatura (degC), Point: (0, 125)Temperatura (degC), Point: (15, 125)Temperatura (degC), Point: (27.483, 125)Temperatura (degC), Point: (28.742, 125)Temperatura (degC), Point: (29.497, 125)Temperatura (degC), Point: (29.99, 125)Temperatura (degC), Point: (0, 187.5)Temperatura (degC), Point: (15, 187.5)Temperatura (degC), Point: (27.483, 187.5)Temperatura (degC), Point: (28.742, 187.5)Temperatura (degC), Point: (29.497, 187.5)Temperatura (degC), Point: (29.99, 187.5)Temperatura (degC), Point: (0, 250)Temperatura (degC), Point: (15, 250)Temperatura (degC), Point: (27.483, 250)Temperatura (degC), Point: (28.742, 250)Temperatura (degC), Point: (29.497, 250)Temperatura (degC), Point: (29.99, 250)Temperatura (degC), Point: (0, 312.5)Temperatura (degC), Point: (15, 312.5)Temperatura (degC), Point: (27.483, 312.5)Temperatura (degC), Point: (28.742, 312.5)Temperatura (degC), Point: (29.497, 312.5)Temperatura (degC), Point: (29.99, 312.5)Temperatura (degC), Point: (0, 375)Temperatura (degC), Point: (15, 375)Temperatura (degC), Point: (27.483, 375)Temperatura (degC), Point: (28.742, 375)Temperatura (degC), Point: (29.497, 375)Temperatura (degC), Point: (29.99, 375)Temperatura (degC), Point: (0, 437.5)Temperatura (degC), Point: (15, 437.5)Temperatura (degC), Point: (27.483, 437.5)Temperatura (degC), Point: (28.742, 437.5)Temperatura (degC), Point: (29.497, 437.5)Temperatura (degC), Point: (29.99, 437.5)Temperatura (degC), Point: (0, 468.75)Temperatura (degC), Point: (15, 468.75)Temperatura (degC), Point: (27.483, 468.75)Temperatura (degC), Point: (28.742, 468.75)Temperatura (degC), Point: (29.497, 468.75)Temperatura (degC), Point: (29.99, 468.75)Temperatura (degC), Point: (0, 492.19)Temperatura (degC), Point: (15, 492.19)Temperatura (degC), Point: (27.483, 492.19)Temperatura (degC), Point: (28.742, 492.19)Temperatura (degC), Point: (29.497, 492.19)Temperatura (degC), Point: (29.99, 492.19)
20.000                   3.0000                   1.0000                   6000.0                   4000.0                   0.0000                   20.000                   20.000                   20.000                   20.000                   20.187                   20.623                   20.000                   20.000                   20.000                   20.000                   20.187                   20.623                   20.000                   20.000                   20.000                   20.000                   20.188                   20.623                   20.000                   20.000                   20.000                   20.000                   20.188                   20.623                   20.000                   20.000                   20.000                   20.000                   20.187                   20.623                   20.000                   20.000                   20.000                   20.000                   20.187                   20.622                   20.000                   20.000                   20.000                   20.000                   20.187                   20.623                   20.000                   20.000                   20.000                   20.000                   20.184                   20.616                   20.000                   20.000                   20.000                   20.000                   20.172                   20.593                   20.000                   20.000                   20.000                   20.000                   20.151                   20.547
20.000                   3.0000                   1.0000                   6000.0                   4000.0                   5.0000                   34.727                   92.720                   439.76                   522.28                   567.53                   580.04                   34.609                   92.166                   433.84                   514.09                   561.05                   574.29                   34.661                   92.498                   437.12                   517.92                   563.56                   576.73                   34.642                   92.463                   438.05                   519.80                   566.60                   579.66                   34.660                   92.477                   439.90                   523.06                   569.06                   582.00                   34.606                   92.037                   430.89                   509.44                   553.73                   566.37                   34.692                   92.707                   438.41                   519.52                   566.10                   579.16                   34.660                   92.477                   434.21                   514.25                   559.51                   572.17                   33.815                   88.170                   407.61                   480.81                   522.25                   534.18                   37.260                   89.963                   345.76                   398.32                   431.07                   441.06
20.000                   3.0000                   1.0000                   6000.0                   4000.0                   10.000                   123.88                   249.93                   790.61                   945.33                   1016.1                   1031.1                   123.68                   249.19                   770.59                   905.92                   969.26                   984.20                   124.03                   249.67                   772.85                   913.47                   982.95                   998.54                   124.09                   250.16                   782.50                   925.24                   990.95                   1005.8                   124.00                   249.92                   771.44                   907.78                   976.31                   991.99                   123.42                   248.36                   766.64                   902.19                   968.63                   984.10                   124.32                   250.68                   784.05                   926.17                   990.88                   1005.6                   123.33                   247.73                   762.59                   899.46                   965.25                   980.29                   118.00                   235.76                   701.09                   808.37                   868.22                   883.23                   121.54                   228.10                   597.22                   666.55                   705.70                   716.67
20.000                   3.0000                   1.0000                   6000.0                   4000.0                   15.000                   252.55                   408.88                   1121.7                   1179.4                   1192.1                   1191.9                   251.69                   402.30                   941.06                   1018.8                   1045.9                   1050.0                   252.10                   401.69                   931.67                   1011.8                   1041.4                   1046.3                   252.75                   406.35                   1083.1                   1149.8                   1165.2                   1165.6                   252.12                   401.19                   882.70                   952.08                   982.09                   988.24                   251.19                   400.27                   881.78                   948.36                   976.86                   982.68                   252.89                   405.85                   1042.1                   1115.4                   1133.3                   1134.4                   249.96                   400.65                   1063.8                   1135.5                   1152.4                   1153.2                   239.33                   379.53                   898.18                   994.65                   1032.3                   1039.2                   236.85                   363.10                   732.58                   800.73                   837.37                   846.29
20.000                   3.0000                   1.0000                   6000.0                   4000.0                   20.000                   374.53                   539.09                   1150.7                   1178.5                   1183.4                   1181.8                   371.00                   520.70                   990.48                   1039.9                   1055.6                   1057.3                   370.56                   518.07                   1007.1                   1061.1                   1076.8                   1078.2                   373.48                   532.91                   1143.5                   1175.3                   1181.4                   1180.0                   370.77                   515.80                   915.94                   961.84                   982.05                   986.02                   370.18                   517.21                   929.42                   973.15                   991.58                   995.03                   373.05                   528.51                   1095.2                   1133.9                   1142.5                   1141.8                   369.28                   523.93                   1082.4                   1120.6                   1128.9                   1128.2                   353.51                   497.96                   1060.3                   1115.7                   1129.5                   1129.9                   343.69                   468.34                   827.41                   895.67                   928.83                   936.21
20.000                   3.0000                   1.0000                   6000.0                   4000.0                   25.000                   473.95                   632.18                   1145.6                   1163.8                   1166.2                   1164.2                   467.75                   607.97                   1047.4                   1081.2                   1089.9                   1089.7                   466.45                   605.07                   1064.8                   1099.4                   1107.8                   1107.3                   471.75                   625.03                   1145.1                   1165.5                   1168.6                   1166.7                   467.07                   602.47                   992.45                   1028.7                   1041.1                   1042.4                   466.83                   604.87                   1012.9                   1047.0                   1057.6                   1058.2                   470.53                   618.02                   1112.3                   1137.4                   1142.2                   1140.8                   467.12                   613.93                   1096.2                   1121.6                   1126.4                   1125.1                   449.01                   591.56                   1122.2                   1151.8                   1157.5                   1156.2                   432.08                   549.73                   894.30                   950.71                   977.20                   982.71
20.000                   3.0000                   1.0000                   6000.0                   4000.0                   30.000                   555.72                   702.44                   1140.7                   1153.8                   1155.0                   1152.8                   548.00                   677.97                   1092.9                   1113.8                   1117.7                   1116.3                   546.21                   675.06                   1097.9                   1119.3                   1123.3                   1121.9                   552.92                   695.18                   1137.9                   1152.4                   1154.0                   1151.9                   547.26                   673.30                   1072.5                   1096.4                   1101.5                   1100.4                   547.09                   675.62                   1083.9                   1105.9                   1110.2                   1108.9                   551.12                   687.79                   1119.9                   1136.8                   1139.3                   1137.5                   548.35                   684.34                   1111.5                   1128.9                   1131.5                   1129.8                   529.80                   667.01                   1132.7                   1150.8                   1153.3                   1151.5                   506.67                   616.63                   940.50                   982.24                   1001.4                   1005.1
20.000                   3.0000                   1.0000                   6000.0                   4000.0                   35.000                   620.78                   758.44                   1143.0                   1153.0                   1153.4                   1151.1                   613.07                   734.97                   1118.9                   1132.6                   1134.2                   1132.2                   611.16                   731.85                   1119.2                   1133.3                   1135.0                   1133.1                   617.93                   750.82                   1139.6                   1150.4                   1151.1                   1148.9                   612.46                   731.24                   1111.9                   1126.5                   1128.5                   1126.6                   612.22                   733.09                   1116.5                   1130.4                   1132.2                   1130.2                   615.97                   743.74                   1130.4                   1142.5                   1143.6                   1141.4                   613.91                   740.98                   1126.1                   1138.4                   1139.6                   1137.5                   596.75                   726.55                   1135.5                   1148.1                   1149.3                   1147.1                   569.98                   673.15                   1014.3                   1047.5                   1058.3                   1059.0
20.000                   3.0000                   1.0000                   6000.0                   4000.0                   40.000                   672.45                   811.73                   1149.7                   1157.4                   1157.2                   1154.7                   665.62                   790.20                   1137.0                   1146.3                   1146.7                   1144.4                   663.81                   786.36                   1136.1                   1145.8                   1146.2                   1143.9                   669.90                   804.70                   1146.9                   1155.1                   1155.0                   1152.6                   665.17                   787.03                   1134.2                   1143.9                   1144.3                   1142.1                   664.86                   788.47                   1136.0                   1145.5                   1145.8                   1143.6                   668.04                   798.08                   1142.3                   1151.0                   1151.1                   1148.7                   666.55                   795.50                   1139.2                   1148.1                   1148.2                   1145.9                   651.54                   779.61                   1138.4                   1147.8                   1148.1                   1145.8                   624.33                   725.05                   1100.6                   1119.7                   1123.1                   1121.5
20.000                   3.0000                   1.0000                   6000.0                   4000.0                   45.000                   708.87                   863.98                   1159.5                   1165.4                   1164.7                   1162.1                   702.96                   846.79                   1151.6                   1158.4                   1158.0                   1155.5                   701.35                   843.01                   1150.6                   1157.6                   1157.2                   1154.8                   706.57                   858.21                   1157.4                   1163.6                   1162.9                   1160.4                   702.64                   844.63                   1150.2                   1157.2                   1156.7                   1154.3                   702.29                   845.23                   1150.9                   1157.8                   1157.4                   1154.9                   704.91                   852.88                   1154.5                   1161.0                   1160.4                   1157.9                   703.73                   850.28                   1151.7                   1158.3                   1157.8                   1155.3                   691.17                   831.81                   1145.7                   1152.9                   1152.5                   1150.1                   667.79                   783.12                   1142.6                   1154.3                   1155.2                   1152.9
20.000                   3.0000                   1.0000                   6000.0                   4000.0                   50.000                   741.02                   915.21                   1170.5                   1174.9                   1173.7                   1170.9                   735.67                   902.62                   1165.5                   1170.4                   1169.3                   1166.6                   734.21                   899.29                   1164.6                   1169.6                   1168.5                   1165.9                   738.80                   910.75                   1168.9                   1173.5                   1172.3                   1169.6                   735.44                   901.48                   1164.9                   1169.8                   1168.7                   1166.1                   735.03                   901.24                   1165.0                   1169.9                   1168.8                   1166.1                   737.28                   906.74                   1167.1                   1171.8                   1170.6                   1168.0                   736.21                   904.03                   1164.2                   1169.0                   1167.9                   1165.2                   725.15                   883.19                   1154.6                   1159.9                   1159.0                   1156.4                   706.54                   845.84                   1173.9                   1180.8                   1180.2                   1177.6
20.000                   3.0000                   1.0000                   6000.0                   4000.0                   55.000                   785.09                   963.22                   1184.1                   1187.5                   1185.8                   1183.0                   778.38                   954.12                   1180.5                   1184.1                   1182.6                   1179.8                   776.36                   951.45                   1179.7                   1183.4                   1181.9                   1179.1                   782.45                   959.98                   1183.0                   1186.4                   1184.8                   1182.0                   778.27                   953.55                   1180.2                   1183.8                   1182.3                   1179.5                   777.42                   952.93                   1180.0                   1183.6                   1182.1                   1179.3                   780.24                   956.77                   1181.4                   1184.9                   1183.4                   1180.6                   778.12                   953.51                   1178.1                   1181.6                   1180.1                   1177.3                   759.06                   931.79                   1166.4                   1170.3                   1168.9                   1166.2                   738.75                   913.97                   1198.8                   1203.5                   1202.2                   1199.3
20.000                   3.0000                   1.0000                   6000.0                   4000.0                   60.000                   840.03                   1009.1                   1199.8                   1202.2                   1200.3                   1197.3                   833.24                   1002.8                   1197.2                   1199.8                   1197.9                   1194.9                   831.05                   1000.8                   1196.6                   1199.2                   1197.3                   1194.3                   837.49                   1006.9                   1199.0                   1201.5                   1199.5                   1196.6                   833.28                   1002.6                   1197.1                   1199.6                   1197.7                   1194.7                   832.13                   1001.8                   1196.7                   1199.3                   1197.4                   1194.4                   834.93                   1004.3                   1197.6                   1200.1                   1198.2                   1195.2                   831.68                   1000.4                   1193.5                   1196.0                   1194.1                   1191.2                   806.99                   978.78                   1180.2                   1182.9                   1181.1                   1178.3                   787.92                   978.96                   1223.8                   1226.9                   1224.9                   1221.8
20.000                   3.0000                   1.0000                   6000.0                   4000.0                   65.000                   904.00                   1053.3                   1217.2                   1218.8                   1216.5                   1213.4                   898.20                   1049.1                   1215.3                   1217.0                   1214.7                   1211.6                   896.18                   1047.7                   1214.8                   1216.5                   1214.3                   1211.2                   902.01                   1052.0                   1216.7                   1218.3                   1216.1                   1213.0                   898.43                   1049.2                   1215.2                   1217.0                   1214.7                   1211.6                   897.10                   1048.3                   1214.8                   1216.5                   1214.2                   1211.1                   899.39                   1049.8                   1215.3                   1217.0                   1214.7                   1211.6                   894.92                   1045.1                   1210.3                   1211.9                   1209.7                   1206.6                   866.57                   1024.4                   1195.7                   1197.5                   1195.3                   1192.3                   851.19                   1041.4                   1248.8                   1250.7                   1248.3                   1245.0
20.000                   3.0000                   1.0000                   6000.0                   4000.0                   70.000                   965.16                   1093.1                   1237.8                   1238.7                   1236.2                   1232.9                   960.77                   1090.2                   1236.3                   1237.3                   1234.8                   1231.5                   959.22                   1089.2                   1235.9                   1237.0                   1234.4                   1231.2                   963.84                   1092.4                   1237.5                   1238.5                   1236.0                   1232.7                   961.09                   1090.4                   1236.3                   1237.4                   1234.8                   1231.5                   959.84                   1089.6                   1235.8                   1236.8                   1234.3                   1231.0                   961.38                   1090.4                   1236.1                   1237.1                   1234.5                   1231.3                   955.98                   1084.8                   1229.9                   1231.0                   1228.4                   1225.2                   930.22                   1066.4                   1215.1                   1216.1                   1213.7                   1210.5                   925.95                   1094.7                   1275.7                   1276.7                   1273.9                   1270.4
20.000                   3.0000                   1.0000                   6000.0                   4000.0                   75.000                   1019.6                   1130.2                   1258.9                   1259.3                   1256.4                   1253.0                   1016.4                   1128.2                   1257.8                   1258.2                   1255.3                   1251.9                   1015.2                   1127.5                   1257.5                   1257.9                   1255.1                   1251.6                   1018.8                   1129.8                   1258.9                   1259.2                   1256.4                   1252.9                   1016.7                   1128.4                   1257.9                   1258.2                   1255.4                   1251.9                   1015.6                   1127.6                   1257.3                   1257.7                   1254.8                   1251.4                   1016.5                   1128.0                   1257.3                   1257.7                   1254.9                   1251.4                   1010.3                   1121.6                   1250.2                   1250.6                   1247.8                   1244.4                   987.74                   1105.3                   1235.7                   1236.1                   1233.3                   1230.0                   993.21                   1142.3                   1301.7                   1301.9                   1298.7                   1295.0