% Model:              batchmodel_COIL_N_20_COIL_kr_3_COIL_kh_1.5_FUNZ_freq_2000_FUNZ_I_eff_1000.mph
% Version:            COMSOL 6.0.0.318
% Date:               Feb 9 2022, 03:14
% Table:              Tabella 1 - GRIGLIA_T
% COIL_N                 COIL_kr                  COIL_kh                  FUNZ_freq                FUNZ_I_eff               Time (s)                 Temperatura (degC), Point: (0, 0)Temperatura (degC), Point: (15, 0)Temperatura (degC), Point: (25.641, 0)Temperatura (degC), Point: (27.821, 0)Temperatura (degC), Point: (29.128, 0)Temperatura (degC), Point: (29.99, 0)Temperatura (degC), Point: (0, 62.5)Temperatura (degC), Point: (15, 62.5)Temperatura (degC), Point: (25.641, 62.5)Temperatura (degC), Point: (27.821, 62.5)Temperatura (degC), Point: (29.128, 62.5)Temperatura (degC), Point: (29.99, 62.5)Temperatura (degC), Point: (0, 125)Temperatura (degC), Point: (15, 125)Temperatura (degC), Point: (25.641, 125)Temperatura (degC), Point: (27.821, 125)Temperatura (degC), Point: (29.128, 125)Temperatura (degC), Point: (29.99, 125)Temperatura (degC), Point: (0, 187.5)Temperatura (degC), Point: (15, 187.5)Temperatura (degC), Point: (25.641, 187.5)Temperatura (degC), Point: (27.821, 187.5)Temperatura (degC), Point: (29.128, 187.5)Temperatura (degC), Point: (29.99, 187.5)Temperatura (degC), Point: (0, 250)Temperatura (degC), Point: (15, 250)Temperatura (degC), Point: (25.641, 250)Temperatura (degC), Point: (27.821, 250)Temperatura (degC), Point: (29.128, 250)Temperatura (degC), Point: (29.99, 250)Temperatura (degC), Point: (0, 312.5)Temperatura (degC), Point: (15, 312.5)Temperatura (degC), Point: (25.641, 312.5)Temperatura (degC), Point: (27.821, 312.5)Temperatura (degC), Point: (29.128, 312.5)Temperatura (degC), Point: (29.99, 312.5)Temperatura (degC), Point: (0, 375)Temperatura (degC), Point: (15, 375)Temperatura (degC), Point: (25.641, 375)Temperatura (degC), Point: (27.821, 375)Temperatura (degC), Point: (29.128, 375)Temperatura (degC), Point: (29.99, 375)Temperatura (degC), Point: (0, 437.5)Temperatura (degC), Point: (15, 437.5)Temperatura (degC), Point: (25.641, 437.5)Temperatura (degC), Point: (27.821, 437.5)Temperatura (degC), Point: (29.128, 437.5)Temperatura (degC), Point: (29.99, 437.5)Temperatura (degC), Point: (0, 468.75)Temperatura (degC), Point: (15, 468.75)Temperatura (degC), Point: (25.641, 468.75)Temperatura (degC), Point: (27.821, 468.75)Temperatura (degC), Point: (29.128, 468.75)Temperatura (degC), Point: (29.99, 468.75)Temperatura (degC), Point: (0, 492.19)Temperatura (degC), Point: (15, 492.19)Temperatura (degC), Point: (25.641, 492.19)Temperatura (degC), Point: (27.821, 492.19)Temperatura (degC), Point: (29.128, 492.19)Temperatura (degC), Point: (29.99, 492.19)
20.000                   3.0000                   1.5000                   2000.0                   1000.0                   0.0000                   20.000                   20.000                   20.000                   20.000                   20.001                   20.045                   20.000                   20.000                   20.000                   20.000                   20.001                   20.045                   20.000                   20.000                   20.000                   20.000                   20.001                   20.045                   20.000                   20.000                   20.000                   20.000                   20.001                   20.045                   20.000                   20.000                   20.000                   20.000                   20.001                   20.045                   20.000                   20.000                   20.000                   20.000                   20.001                   20.045                   20.000                   20.000                   20.000                   20.000                   20.001                   20.045                   20.000                   20.000                   20.000                   20.000                   20.001                   20.044                   20.000                   20.000                   20.000                   20.000                   20.001                   20.039                   20.000                   20.000                   20.000                   20.000                   20.000                   20.026
20.000                   3.0000                   1.5000                   2000.0                   1000.0                   5.0000                   21.290                   24.971                   39.964                   45.633                   48.841                   50.306                   21.287                   24.957                   39.876                   45.513                   48.682                   50.198                   21.283                   24.930                   39.729                   45.322                   48.480                   50.007                   21.286                   24.947                   39.909                   45.585                   48.723                   50.244                   21.292                   24.981                   39.970                   45.608                   48.767                   50.255                   21.270                   24.887                   39.536                   45.037                   48.198                   49.712                   21.252                   24.809                   39.253                   44.732                   48.063                   49.542                   21.411                   25.490                   42.302                   48.571                   52.015                   53.612                   21.241                   24.878                   40.402                   46.327                   49.397                   50.845                   21.221                   24.134                   32.953                   36.099                   37.815                   38.629
20.000                   3.0000                   1.5000                   2000.0                   1000.0                   10.000                   27.718                   35.882                   56.646                   62.819                   66.144                   67.664                   27.752                   35.999                   57.293                   63.755                   67.158                   68.730                   27.793                   36.090                   57.368                   63.752                   67.084                   68.655                   27.784                   36.091                   57.874                   64.577                   67.911                   69.455                   27.757                   35.980                   56.874                   63.074                   66.488                   68.049                   27.574                   35.598                   56.275                   62.615                   65.899                   67.429                   27.453                   35.258                   54.897                   60.678                   64.266                   65.819                   28.530                   37.721                   61.365                   68.214                   71.870                   73.651                   27.713                   36.162                   59.052                   65.548                   68.633                   70.114                   27.273                   34.218                   48.175                   52.067                   54.149                   55.078
20.000                   3.0000                   1.5000                   2000.0                   1000.0                   15.000                   38.246                   48.357                   70.109                   76.112                   79.591                   81.188                   38.319                   48.518                   70.707                   76.927                   80.449                   82.068                   38.446                   48.732                   70.968                   77.149                   80.629                   82.243                   38.423                   48.711                   71.318                   77.711                   81.193                   82.793                   38.322                   48.485                   70.339                   76.372                   79.896                   81.516                   37.892                   47.830                   69.458                   75.602                   79.031                   80.624                   37.612                   47.261                   67.846                   73.512                   77.072                   78.689                   39.626                   50.655                   74.332                   80.672                   84.241                   85.955                   37.751                   47.778                   70.046                   75.819                   78.781                   80.203                   36.104                   44.130                   58.169                   61.647                   63.598                   64.486
20.000                   3.0000                   1.5000                   2000.0                   1000.0                   20.000                   50.066                   60.840                   81.848                   87.436                   91.007                   92.674                   50.181                   61.025                   82.193                   87.809                   91.340                   93.001                   50.388                   61.311                   82.572                   88.205                   91.742                   93.403                   50.360                   61.279                   82.554                   88.174                   91.718                   93.387                   50.180                   60.994                   82.067                   87.659                   91.218                   92.880                   49.495                   60.110                   80.924                   86.476                   90.006                   91.674                   49.067                   59.438                   79.811                   85.294                   88.794                   90.450                   51.642                   62.811                   83.885                   89.262                   92.630                   94.197                   48.481                   58.318                   76.614                   81.185                   84.019                   85.371                   45.262                   52.647                   64.394                   66.992                   68.530                   69.293
20.000                   3.0000                   1.5000                   2000.0                   1000.0                   25.000                   62.342                   73.598                   95.063                   100.82                   104.58                   106.27                   62.527                   73.876                   95.521                   101.31                   104.88                   106.55                   62.797                   74.206                   95.933                   101.79                   105.40                   107.07                   62.795                   74.223                   95.944                   101.75                   105.40                   107.09                   62.514                   73.825                   95.386                   101.12                   104.74                   106.41                   61.558                   72.652                   93.852                   99.536                   103.15                   104.85                   60.915                   71.701                   92.210                   97.700                   101.19                   102.85                   63.517                   74.573                   94.609                   99.644                   102.77                   104.21                   58.929                   68.406                   85.087                   89.268                   91.881                   93.145                   54.303                   61.230                   71.676                   73.959                   75.288                   75.914
20.000                   3.0000                   1.5000                   2000.0                   1000.0                   30.000                   75.903                   87.673                   110.63                   116.88                   120.88                   122.57                   76.203                   88.091                   111.26                   117.55                   121.25                   122.95                   76.579                   88.570                   112.01                   118.43                   122.21                   123.94                   76.610                   88.615                   112.07                   118.50                   122.33                   124.07                   76.167                   88.001                   111.03                   117.21                   120.91                   122.57                   74.960                   86.587                   109.32                   115.55                   119.30                   121.02                   73.788                   84.886                   106.14                   111.84                   115.42                   117.08                   75.538                   86.738                   107.80                   113.19                   116.25                   117.65                   69.472                   79.044                   96.927                   101.47                   104.01                   105.23                   64.042                   71.125                   81.997                   84.482                   85.838                   86.402
20.000                   3.0000                   1.5000                   2000.0                   1000.0                   35.000                   89.463                   101.75                   126.20                   132.95                   137.19                   138.87                   89.879                   102.31                   127.01                   133.78                   137.62                   139.34                   90.361                   102.93                   128.08                   135.07                   139.03                   140.81                   90.426                   103.01                   128.20                   135.26                   139.27                   141.04                   89.820                   102.18                   126.67                   133.31                   137.08                   138.73                   88.363                   100.52                   124.78                   131.56                   135.45                   137.20                   86.661                   98.071                   120.07                   125.97                   129.65                   131.31                   87.558                   98.903                   121.00                   126.73                   129.73                   131.09                   80.015                   89.682                   108.77                   113.68                   116.14                   117.31                   73.780                   81.020                   92.318                   95.005                   96.387                   96.890
20.000                   3.0000                   1.5000                   2000.0                   1000.0                   40.000                   102.58                   114.85                   139.09                   145.72                   149.90                   151.60                   103.06                   115.46                   139.89                   146.56                   150.45                   152.18                   103.59                   116.13                   140.93                   147.75                   151.73                   153.51                   103.68                   116.22                   141.06                   147.95                   151.96                   153.73                   102.99                   115.33                   139.60                   146.16                   149.99                   151.67                   101.38                   113.55                   137.63                   144.30                   148.22                   149.97                   99.371                   110.88                   133.12                   139.11                   142.87                   144.56                   99.035                   110.29                   132.26                   138.04                   141.25                   142.69                   89.969                   99.436                   118.16                   123.05                   125.68                   126.92                   82.689                   89.620                   100.72                   103.39                   104.84                   105.43
20.000                   3.0000                   1.5000                   2000.0                   1000.0                   45.000                   115.55                   127.65                   151.11                   157.45                   161.46                   163.19                   116.08                   128.27                   151.87                   158.22                   162.13                   163.87                   116.65                   128.94                   152.75                   159.17                   163.12                   164.88                   116.76                   129.06                   152.88                   159.33                   163.29                   165.05                   116.01                   128.16                   151.66                   157.97                   161.85                   163.58                   114.26                   126.29                   149.64                   155.98                   159.89                   161.64                   112.03                   123.57                   145.89                   151.93                   155.77                   157.49                   110.34                   121.42                   142.89                   148.63                   152.13                   153.71                   99.735                   108.91                   126.76                   131.52                   134.38                   135.73                   91.333                   97.805                   108.51                   111.10                   112.62                   113.34
20.000                   3.0000                   1.5000                   2000.0                   1000.0                   50.000                   128.61                   140.69                   163.91                   170.11                   174.03                   175.78                   129.18                   141.33                   164.69                   170.95                   174.90                   176.63                   129.77                   141.99                   165.40                   171.65                   175.58                   177.32                   129.91                   142.13                   165.56                   171.82                   175.75                   177.48                   129.12                   141.24                   164.56                   170.81                   174.75                   176.50                   127.23                   139.26                   162.45                   168.69                   172.62                   174.36                   124.79                   136.44                   159.07                   165.22                   169.15                   170.90                   121.93                   133.09                   154.79                   160.66                   164.40                   166.09                   109.84                   119.00                   136.84                   141.66                   144.71                   146.14                   100.41                   106.73                   117.47                   120.12                   121.76                   122.59
20.000                   3.0000                   1.5000                   2000.0                   1000.0                   55.000                   141.79                   154.05                   177.72                   184.02                   187.92                   189.71                   142.40                   154.74                   178.65                   185.10                   189.11                   190.80                   142.98                   155.34                   179.14                   185.53                   189.48                   191.18                   143.14                   155.51                   179.36                   185.77                   189.70                   191.39                   142.34                   154.67                   178.56                   185.01                   189.01                   190.77                   140.31                   152.53                   176.30                   182.75                   186.73                   188.46                   137.68                   149.57                   172.78                   179.11                   183.15                   184.93                   133.90                   145.48                   168.35                   174.58                   178.51                   180.28                   120.39                   129.92                   148.88                   154.02                   157.18                   158.66                   110.06                   116.62                   127.99                   130.90                   132.69                   133.60
20.000                   3.0000                   1.5000                   2000.0                   1000.0                   60.000                   155.02                   167.48                   191.68                   198.09                   202.00                   203.81                   155.66                   168.20                   192.73                   199.40                   203.47                   205.12                   156.23                   168.76                   193.05                   199.62                   203.58                   205.25                   156.41                   168.95                   193.31                   199.88                   203.81                   205.46                   155.60                   168.15                   192.69                   199.35                   203.41                   205.18                   153.42                   165.87                   190.27                   196.94                   200.98                   202.70                   150.62                   162.76                   186.57                   193.08                   197.22                   199.03                   145.93                   157.95                   181.98                   188.57                   192.65                   194.49                   131.03                   140.94                   161.02                   166.46                   169.70                   171.23                   119.84                   126.68                   138.70                   141.84                   143.78                   144.76
20.000                   3.0000                   1.5000                   2000.0                   1000.0                   65.000                   168.65                   181.55                   206.86                   213.56                   217.56                   219.39                   169.23                   182.20                   207.94                   215.03                   219.21                   220.81                   169.81                   182.79                   208.38                   215.36                   219.46                   221.13                   169.96                   182.91                   208.41                   215.35                   219.31                   220.89                   169.19                   182.17                   207.86                   214.88                   219.02                   220.77                   166.85                   179.71                   205.23                   212.28                   216.43                   218.16                   163.91                   176.41                   200.98                   207.68                   211.90                   213.73                   158.51                   171.06                   196.28                   203.12                   207.12                   208.92                   142.38                   152.79                   174.02                   179.62                   182.74                   184.20                   130.70                   138.13                   150.93                   154.26                   156.22                   157.17
20.000                   3.0000                   1.5000                   2000.0                   1000.0                   70.000                   182.28                   195.63                   222.04                   229.02                   233.13                   234.96                   182.81                   196.20                   223.14                   230.65                   234.94                   236.50                   183.39                   196.82                   223.70                   231.11                   235.33                   237.00                   183.50                   196.86                   223.52                   230.82                   234.81                   236.33                   182.78                   196.19                   223.03                   230.42                   234.63                   236.37                   180.27                   193.54                   220.19                   227.61                   231.88                   233.62                   177.20                   190.07                   215.39                   222.28                   226.58                   228.43                   171.09                   184.18                   210.58                   217.66                   221.60                   223.35                   153.72                   164.65                   187.02                   192.78                   195.78                   197.18                   141.56                   149.59                   163.17                   166.68                   168.65                   169.58
20.000                   3.0000                   1.5000                   2000.0                   1000.0                   75.000                   196.17                   209.95                   237.32                   244.53                   248.74                   250.58                   196.61                   210.41                   238.33                   246.12                   250.51                   252.05                   197.21                   211.07                   238.99                   246.68                   250.99                   252.66                   197.26                   211.01                   238.67                   246.27                   250.34                   251.83                   196.60                   210.44                   238.25                   245.92                   250.23                   251.99                   193.88                   207.52                   235.02                   242.68                   247.04                   248.80                   190.64                   203.83                   229.80                   236.87                   241.26                   243.13                   183.90                   197.42                   224.71                   231.97                   235.91                   237.64                   165.40                   176.70                   199.81                   205.67                   208.63                   209.99                   152.78                   161.21                   175.23                   178.80                   180.75                   181.65