% Model:              batchmodel_COIL_N_20_COIL_kr_3_COIL_kh_2_FUNZ_freq_10000_FUNZ_I_eff_4000.mph
% Version:            COMSOL 6.0.0.318
% Date:               Feb 9 2022, 04:49
% Table:              Tabella 1 - GRIGLIA_T
% COIL_N                 COIL_kr                  COIL_kh                  FUNZ_freq                FUNZ_I_eff               Time (s)                 Temperatura (degC), Point: (0, 0)Temperatura (degC), Point: (15, 0)Temperatura (degC), Point: (28.051, 0)Temperatura (degC), Point: (29.025, 0)Temperatura (degC), Point: (29.61, 0)Temperatura (degC), Point: (29.99, 0)Temperatura (degC), Point: (0, 62.5)Temperatura (degC), Point: (15, 62.5)Temperatura (degC), Point: (28.051, 62.5)Temperatura (degC), Point: (29.025, 62.5)Temperatura (degC), Point: (29.61, 62.5)Temperatura (degC), Point: (29.99, 62.5)Temperatura (degC), Point: (0, 125)Temperatura (degC), Point: (15, 125)Temperatura (degC), Point: (28.051, 125)Temperatura (degC), Point: (29.025, 125)Temperatura (degC), Point: (29.61, 125)Temperatura (degC), Point: (29.99, 125)Temperatura (degC), Point: (0, 187.5)Temperatura (degC), Point: (15, 187.5)Temperatura (degC), Point: (28.051, 187.5)Temperatura (degC), Point: (29.025, 187.5)Temperatura (degC), Point: (29.61, 187.5)Temperatura (degC), Point: (29.99, 187.5)Temperatura (degC), Point: (0, 250)Temperatura (degC), Point: (15, 250)Temperatura (degC), Point: (28.051, 250)Temperatura (degC), Point: (29.025, 250)Temperatura (degC), Point: (29.61, 250)Temperatura (degC), Point: (29.99, 250)Temperatura (degC), Point: (0, 312.5)Temperatura (degC), Point: (15, 312.5)Temperatura (degC), Point: (28.051, 312.5)Temperatura (degC), Point: (29.025, 312.5)Temperatura (degC), Point: (29.61, 312.5)Temperatura (degC), Point: (29.99, 312.5)Temperatura (degC), Point: (0, 375)Temperatura (degC), Point: (15, 375)Temperatura (degC), Point: (28.051, 375)Temperatura (degC), Point: (29.025, 375)Temperatura (degC), Point: (29.61, 375)Temperatura (degC), Point: (29.99, 375)Temperatura (degC), Point: (0, 437.5)Temperatura (degC), Point: (15, 437.5)Temperatura (degC), Point: (28.051, 437.5)Temperatura (degC), Point: (29.025, 437.5)Temperatura (degC), Point: (29.61, 437.5)Temperatura (degC), Point: (29.99, 437.5)Temperatura (degC), Point: (0, 468.75)Temperatura (degC), Point: (15, 468.75)Temperatura (degC), Point: (28.051, 468.75)Temperatura (degC), Point: (29.025, 468.75)Temperatura (degC), Point: (29.61, 468.75)Temperatura (degC), Point: (29.99, 468.75)Temperatura (degC), Point: (0, 492.19)Temperatura (degC), Point: (15, 492.19)Temperatura (degC), Point: (28.051, 492.19)Temperatura (degC), Point: (29.025, 492.19)Temperatura (degC), Point: (29.61, 492.19)Temperatura (degC), Point: (29.99, 492.19)
20.000                   3.0000                   2.0000                   10000                    4000.0                   0.0000                   20.000                   20.000                   20.000                   20.001                   20.324                   21.004                   20.000                   20.000                   20.000                   20.001                   20.324                   21.004                   20.000                   20.000                   20.000                   20.001                   20.324                   21.004                   20.000                   20.000                   20.000                   20.001                   20.324                   21.004                   20.000                   20.000                   20.000                   20.001                   20.324                   21.004                   20.000                   20.000                   20.000                   20.001                   20.324                   21.004                   20.000                   20.000                   20.000                   20.001                   20.324                   21.004                   20.000                   20.000                   20.000                   20.001                   20.318                   20.992                   20.000                   20.000                   20.000                   20.001                   20.295                   20.949                   20.000                   20.000                   20.000                   20.001                   20.265                   20.888
20.000                   3.0000                   2.0000                   10000                    4000.0                   5.0000                   37.616                   113.23                   658.59                   770.89                   834.18                   850.59                   37.523                   113.64                   663.47                   778.35                   842.53                   859.06                   37.599                   114.11                   666.06                   782.02                   846.19                   862.62                   37.566                   113.80                   661.25                   774.60                   837.86                   854.16                   37.433                   113.21                   661.37                   775.93                   839.72                   856.16                   37.474                   113.31                   657.63                   769.42                   831.49                   847.60                   37.588                   114.24                   669.16                   786.39                   851.95                   868.60                   37.278                   113.08                   653.64                   761.79                   821.74                   837.49                   36.284                   107.07                   603.69                   701.28                   752.44                   765.90                   48.650                   118.27                   532.99                   607.78                   648.97                   660.14
20.000                   3.0000                   2.0000                   10000                    4000.0                   10.000                   149.20                   302.69                   1114.2                   1174.8                   1189.2                   1189.9                   149.15                   303.76                   1125.1                   1182.0                   1195.4                   1195.9                   149.39                   302.67                   923.20                   986.10                   1010.8                   1015.6                   149.17                   300.98                   886.14                   949.88                   977.78                   983.89                   148.92                   303.23                   1103.9                   1162.5                   1176.4                   1177.1                   148.81                   301.67                   1071.5                   1142.0                   1159.3                   1160.7                   149.82                   305.37                   1124.2                   1179.8                   1193.1                   1193.6                   147.97                   300.88                   1123.7                   1182.3                   1196.2                   1196.8                   142.03                   285.97                   982.12                   1077.5                   1106.2                   1110.2                   154.04                   290.06                   791.19                   876.34                   918.09                   927.91
20.000                   3.0000                   2.0000                   10000                    4000.0                   15.000                   290.12                   456.68                   1146.8                   1174.3                   1179.9                   1179.0                   290.52                   460.07                   1163.9                   1189.3                   1194.3                   1193.2                   290.45                   454.37                   1050.1                   1088.5                   1098.3                   1098.6                   289.54                   449.58                   961.32                   1002.4                   1018.6                   1021.6                   290.46                   459.66                   1142.6                   1168.7                   1174.0                   1173.1                   289.65                   455.73                   1133.3                   1163.2                   1169.6                   1168.9                   291.40                   461.01                   1157.6                   1183.5                   1188.6                   1187.7                   288.19                   455.20                   1147.5                   1175.0                   1180.7                   1179.8                   278.95                   440.30                   1108.2                   1140.9                   1148.2                   1147.8                   282.72                   427.92                   902.39                   959.35                   985.99                   991.88
20.000                   3.0000                   2.0000                   10000                    4000.0                   20.000                   410.08                   568.27                   1128.9                   1147.3                   1150.7                   1149.5                   410.94                   572.46                   1140.7                   1157.6                   1160.5                   1159.2                   410.65                   566.83                   1108.9                   1129.5                   1133.7                   1132.7                   409.24                   561.23                   1081.9                   1107.2                   1113.0                   1112.5                   411.27                   573.17                   1137.4                   1154.2                   1157.1                   1155.9                   410.02                   568.69                   1129.5                   1148.1                   1151.5                   1150.4                   411.66                   573.03                   1141.5                   1158.5                   1161.4                   1160.1                   408.14                   566.90                   1130.0                   1148.4                   1151.8                   1150.6                   398.85                   556.80                   1115.3                   1134.9                   1138.7                   1137.7                   395.06                   536.76                   1058.5                   1093.1                   1102.0                   1102.2
20.000                   3.0000                   2.0000                   10000                    4000.0                   25.000                   503.52                   649.49                   1137.9                   1151.0                   1153.0                   1151.5                   504.51                   652.90                   1142.5                   1155.0                   1156.8                   1155.3                   504.34                   649.53                   1133.7                   1147.2                   1149.3                   1147.9                   502.82                   644.93                   1126.2                   1140.8                   1143.3                   1142.0                   505.12                   654.28                   1142.8                   1155.2                   1156.9                   1155.4                   503.82                   650.44                   1138.3                   1151.4                   1153.3                   1151.9                   505.04                   653.42                   1142.8                   1155.3                   1157.0                   1155.6                   501.63                   647.98                   1136.2                   1149.5                   1151.5                   1150.1                   493.32                   639.97                   1126.4                   1140.4                   1142.6                   1141.3                   486.89                   626.72                   1144.8                   1160.9                   1163.5                   1162.1
20.000                   3.0000                   2.0000                   10000                    4000.0                   30.000                   579.81                   714.20                   1153.1                   1162.7                   1163.6                   1161.9                   580.72                   717.16                   1155.1                   1164.4                   1165.2                   1163.5                   580.76                   715.36                   1152.7                   1162.3                   1163.2                   1161.5                   579.37                   712.09                   1149.9                   1159.8                   1160.8                   1159.1                   581.40                   718.39                   1155.9                   1165.1                   1165.9                   1164.2                   580.29                   715.62                   1153.6                   1163.1                   1163.9                   1162.2                   581.07                   717.34                   1155.2                   1164.5                   1165.3                   1163.6                   577.93                   712.54                   1150.3                   1160.0                   1160.9                   1159.3                   570.42                   704.87                   1139.9                   1150.1                   1151.3                   1149.7                   565.39                   703.23                   1184.4                   1193.7                   1194.4                   1192.5
20.000                   3.0000                   2.0000                   10000                    4000.0                   35.000                   638.07                   772.97                   1170.8                   1178.1                   1178.3                   1176.4                   638.89                   775.40                   1171.8                   1179.0                   1179.2                   1177.3                   639.05                   774.49                   1171.2                   1178.4                   1178.6                   1176.8                   637.88                   771.76                   1169.6                   1177.0                   1177.2                   1175.4                   639.47                   776.56                   1172.6                   1179.7                   1179.9                   1178.0                   638.61                   774.32                   1171.2                   1178.4                   1178.6                   1176.8                   639.04                   775.42                   1171.8                   1179.0                   1179.2                   1177.3                   636.07                   770.04                   1166.9                   1174.3                   1174.6                   1172.7                   629.46                   760.44                   1154.9                   1162.7                   1163.1                   1161.3                   628.13                   775.52                   1215.4                   1222.0                   1221.8                   1219.7
20.000                   3.0000                   2.0000                   10000                    4000.0                   40.000                   686.00                   832.43                   1190.1                   1195.8                   1195.5                   1193.4                   686.63                   834.13                   1190.7                   1196.4                   1196.0                   1194.0                   686.84                   833.95                   1190.7                   1196.4                   1196.0                   1194.0                   685.92                   831.54                   1189.7                   1195.4                   1195.1                   1193.0                   687.07                   835.30                   1191.3                   1196.9                   1196.6                   1194.5                   686.44                   833.44                   1190.5                   1196.1                   1195.8                   1193.8                   686.63                   834.13                   1190.6                   1196.3                   1195.9                   1193.9                   683.91                   827.88                   1185.1                   1190.8                   1190.5                   1188.5                   678.37                   815.93                   1171.5                   1177.4                   1177.2                   1175.3                   680.95                   849.85                   1245.7                   1250.7                   1249.9                   1247.5
20.000                   3.0000                   2.0000                   10000                    4000.0                   45.000                   722.98                   894.31                   1211.9                   1216.5                   1215.8                   1213.6                   723.12                   895.39                   1212.4                   1217.0                   1216.3                   1214.1                   723.30                   895.74                   1212.7                   1217.2                   1216.5                   1214.3                   722.66                   893.81                   1211.8                   1216.4                   1215.7                   1213.5                   723.42                   896.43                   1212.8                   1217.4                   1216.7                   1214.5                   723.01                   895.10                   1212.3                   1216.9                   1216.2                   1214.0                   723.11                   895.37                   1212.2                   1216.8                   1216.1                   1213.9                   720.95                   888.38                   1205.5                   1210.1                   1209.4                   1207.3                   716.82                   875.03                   1190.4                   1195.0                   1194.3                   1192.2                   722.67                   928.19                   1277.8                   1281.7                   1280.4                   1277.9
20.000                   3.0000                   2.0000                   10000                    4000.0                   50.000                   762.14                   954.77                   1238.2                   1242.1                   1241.0                   1238.7                   762.80                   955.53                   1238.6                   1242.4                   1241.4                   1239.0                   763.27                   956.09                   1239.0                   1242.8                   1241.8                   1239.4                   762.31                   954.64                   1238.3                   1242.1                   1241.1                   1238.7                   763.30                   956.29                   1238.9                   1242.8                   1241.7                   1239.4                   762.73                   955.42                   1238.6                   1242.4                   1241.4                   1239.0                   762.72                   955.34                   1238.3                   1242.2                   1241.1                   1238.8                   758.28                   947.34                   1230.1                   1233.9                   1232.9                   1230.6                   752.49                   934.58                   1213.8                   1217.5                   1216.5                   1214.2                   774.48                   1002.0                   1312.0                   1315.0                   1313.3                   1310.6
