% Model:              batchmodel_COIL_N_20_COIL_kr_3_COIL_kh_1_FUNZ_freq_6000_FUNZ_I_eff_1000.mph
% Version:            COMSOL 6.0.0.318
% Date:               Feb 9 2022, 02:55
% Table:              Tabella 1 - GRIGLIA_T
% COIL_N                 COIL_kr                  COIL_kh                  FUNZ_freq                FUNZ_I_eff               Time (s)                 Temperatura (degC), Point: (0, 0)Temperatura (degC), Point: (15, 0)Temperatura (degC), Point: (27.483, 0)Temperatura (degC), Point: (28.742, 0)Temperatura (degC), Point: (29.497, 0)Temperatura (degC), Point: (29.99, 0)Temperatura (degC), Point: (0, 62.5)Temperatura (degC), Point: (15, 62.5)Temperatura (degC), Point: (27.483, 62.5)Temperatura (degC), Point: (28.742, 62.5)Temperatura (degC), Point: (29.497, 62.5)Temperatura (degC), Point: (29.99, 62.5)Temperatura (degC), Point: (0, 125)Temperatura (degC), Point: (15, 125)Temperatura (degC), Point: (27.483, 125)Temperatura (degC), Point: (28.742, 125)Temperatura (degC), Point: (29.497, 125)Temperatura (degC), Point: (29.99, 125)Temperatura (degC), Point: (0, 187.5)Temperatura (degC), Point: (15, 187.5)Temperatura (degC), Point: (27.483, 187.5)Temperatura (degC), Point: (28.742, 187.5)Temperatura (degC), Point: (29.497, 187.5)Temperatura (degC), Point: (29.99, 187.5)Temperatura (degC), Point: (0, 250)Temperatura (degC), Point: (15, 250)Temperatura (degC), Point: (27.483, 250)Temperatura (degC), Point: (28.742, 250)Temperatura (degC), Point: (29.497, 250)Temperatura (degC), Point: (29.99, 250)Temperatura (degC), Point: (0, 312.5)Temperatura (degC), Point: (15, 312.5)Temperatura (degC), Point: (27.483, 312.5)Temperatura (degC), Point: (28.742, 312.5)Temperatura (degC), Point: (29.497, 312.5)Temperatura (degC), Point: (29.99, 312.5)Temperatura (degC), Point: (0, 375)Temperatura (degC), Point: (15, 375)Temperatura (degC), Point: (27.483, 375)Temperatura (degC), Point: (28.742, 375)Temperatura (degC), Point: (29.497, 375)Temperatura (degC), Point: (29.99, 375)Temperatura (degC), Point: (0, 437.5)Temperatura (degC), Point: (15, 437.5)Temperatura (degC), Point: (27.483, 437.5)Temperatura (degC), Point: (28.742, 437.5)Temperatura (degC), Point: (29.497, 437.5)Temperatura (degC), Point: (29.99, 437.5)Temperatura (degC), Point: (0, 468.75)Temperatura (degC), Point: (15, 468.75)Temperatura (degC), Point: (27.483, 468.75)Temperatura (degC), Point: (28.742, 468.75)Temperatura (degC), Point: (29.497, 468.75)Temperatura (degC), Point: (29.99, 468.75)Temperatura (degC), Point: (0, 492.19)Temperatura (degC), Point: (15, 492.19)Temperatura (degC), Point: (27.483, 492.19)Temperatura (degC), Point: (28.742, 492.19)Temperatura (degC), Point: (29.497, 492.19)Temperatura (degC), Point: (29.99, 492.19)
20.000                   3.0000                   1.0000                   6000.0                   1000.0                   0.0000                   20.000                   20.000                   20.000                   20.000                   20.006                   20.120                   20.000                   20.000                   20.000                   20.000                   20.006                   20.120                   20.000                   20.000                   20.000                   20.000                   20.006                   20.120                   20.000                   20.000                   20.000                   20.000                   20.006                   20.120                   20.000                   20.000                   20.000                   20.000                   20.006                   20.120                   20.000                   20.000                   20.000                   20.000                   20.006                   20.120                   20.000                   20.000                   20.000                   20.000                   20.006                   20.120                   20.000                   20.000                   20.000                   20.000                   20.005                   20.118                   20.000                   20.000                   20.000                   20.000                   20.005                   20.110                   20.000                   20.000                   20.000                   20.000                   20.002                   20.085
20.000                   3.0000                   1.0000                   6000.0                   1000.0                   5.0000                   22.108                   27.806                   57.402                   62.943                   66.447                   68.158                   22.112                   27.826                   57.457                   62.917                   66.371                   68.027                   22.095                   27.750                   57.349                   62.940                   66.511                   68.246                   22.114                   27.816                   57.591                   63.214                   66.837                   68.584                   22.133                   27.908                   57.806                   63.354                   66.875                   68.534                   22.119                   27.838                   57.491                   62.981                   66.371                   68.037                   22.153                   27.978                   58.142                   63.753                   67.281                   68.954                   22.048                   27.600                   56.407                   61.724                   65.102                   66.724                   21.862                   26.948                   53.617                   58.534                   61.641                   63.171                   21.800                   26.193                   46.362                   49.843                   51.974                   53.042
20.000                   3.0000                   1.0000                   6000.0                   1000.0                   10.000                   32.565                   45.392                   84.420                   90.201                   93.805                   95.463                   32.526                   45.273                   84.072                   89.832                   93.436                   95.085                   32.483                   45.161                   83.565                   89.212                   92.756                   94.405                   32.599                   45.425                   84.296                   89.979                   93.509                   95.150                   32.655                   45.533                   84.578                   90.341                   93.935                   95.609                   32.610                   45.442                   84.337                   90.050                   93.616                   95.271                   32.828                   45.902                   85.408                   91.170                   94.765                   96.445                   32.246                   44.769                   82.853                   88.491                   92.036                   93.683                   31.119                   42.526                   77.293                   82.387                   85.546                   87.035                   30.138                   39.654                   65.689                   69.258                   71.461                   72.553
20.000                   3.0000                   1.0000                   6000.0                   1000.0                   15.000                   47.761                   63.237                   100.70                   105.54                   108.41                   109.76                   47.561                   62.842                   99.355                   104.00                   107.05                   108.28                   47.651                   63.196                   101.63                   106.66                   109.77                   111.11                   47.815                   63.416                   101.85                   106.86                   109.84                   111.07                   47.923                   63.554                   101.83                   106.82                   109.93                   111.43                   47.784                   63.298                   101.54                   106.75                   110.16                   111.63                   48.477                   64.545                   104.10                   109.27                   112.48                   114.05                   47.226                   62.687                   101.52                   106.93                   110.53                   112.06                   44.616                   58.502                   92.437                   96.778                   99.575                   100.90                   42.040                   53.568                   80.897                   84.287                   86.536                   87.625
20.000                   3.0000                   1.0000                   6000.0                   1000.0                   20.000                   65.416                   81.943                   122.21                   127.84                   131.37                   133.01                   64.999                   81.310                   120.93                   126.47                   130.05                   131.65                   65.255                   81.963                   123.20                   128.96                   132.59                   134.23                   65.405                   82.080                   123.11                   128.86                   132.46                   134.06                   65.598                   82.303                   123.21                   128.92                   132.53                   134.21                   65.321                   81.857                   122.58                   128.37                   132.09                   133.77                   66.628                   83.835                   125.79                   131.61                   135.27                   136.97                   64.614                   81.211                   122.06                   127.83                   131.54                   133.20                   60.212                   74.981                   110.83                   115.79                   118.97                   120.47                   55.948                   68.191                   96.145                   99.709                   101.99                   103.09
20.000                   3.0000                   1.0000                   6000.0                   1000.0                   25.000                   84.725                   102.40                   146.90                   153.22                   157.20                   158.98                   84.151                   101.69                   146.03                   152.34                   156.32                   158.11                   84.430                   102.19                   146.95                   153.29                   157.28                   159.06                   84.558                   102.28                   146.95                   153.29                   157.27                   159.06                   84.848                   102.61                   147.34                   153.66                   157.64                   159.43                   84.477                   102.12                   146.69                   153.03                   157.01                   158.80                   86.221                   104.33                   149.57                   155.93                   159.93                   161.72                   83.375                   100.87                   144.66                   150.83                   154.72                   156.47                   77.006                   92.527                   131.29                   136.77                   140.22                   141.81                   71.137                   83.828                   112.54                   116.25                   118.57                   119.69
20.000                   3.0000                   1.0000                   6000.0                   1000.0                   30.000                   105.11                   123.83                   171.03                   177.66                   181.79                   183.62                   104.50                   123.16                   170.39                   177.03                   181.18                   183.02                   104.70                   123.46                   170.73                   177.37                   181.52                   183.34                   104.81                   123.54                   170.76                   177.39                   181.54                   183.37                   105.19                   123.98                   171.33                   177.96                   182.11                   183.94                   104.82                   123.54                   170.90                   177.57                   181.72                   183.56                   106.68                   125.67                   173.27                   179.94                   184.11                   185.95                   102.87                   121.19                   167.11                   173.54                   177.58                   179.37                   94.471                   110.65                   151.23                   156.93                   160.51                   162.13                   87.065                   100.08                   129.43                   133.23                   135.59                   136.72
20.000                   3.0000                   1.0000                   6000.0                   1000.0                   35.000                   125.84                   145.55                   195.22                   202.14                   206.44                   208.31                   125.20                   144.89                   194.69                   201.62                   205.92                   207.80                   125.33                   145.03                   194.65                   201.57                   205.88                   207.75                   125.41                   145.09                   194.66                   201.58                   205.90                   207.77                   125.90                   145.66                   195.45                   202.38                   206.70                   208.57                   125.53                   145.26                   195.14                   202.13                   206.45                   208.33                   127.41                   147.25                   197.04                   204.00                   208.35                   210.23                   122.57                   141.67                   189.57                   196.27                   200.45                   202.28                   112.15                   128.93                   171.17                   177.09                   180.78                   182.43                   103.25                   116.58                   146.55                   150.42                   152.82                   153.97
20.000                   3.0000                   1.0000                   6000.0                   1000.0                   40.000                   147.58                   168.07                   219.66                   226.85                   231.33                   233.23                   146.90                   167.35                   218.82                   225.95                   230.35                   232.24                   147.00                   167.48                   219.00                   226.19                   230.67                   232.57                   147.01                   167.44                   218.86                   226.05                   230.54                   232.44                   147.64                   168.19                   219.94                   227.16                   231.66                   233.58                   147.30                   167.80                   219.51                   226.74                   231.22                   233.13                   148.95                   169.48                   221.04                   228.27                   232.80                   234.73                   142.89                   162.62                   212.11                   219.05                   223.38                   225.25                   130.43                   147.70                   191.14                   197.24                   201.04                   202.73                   120.18                   133.77                   164.31                   168.26                   170.70                   171.86
20.000                   3.0000                   1.0000                   6000.0                   1000.0                   45.000                   169.33                   190.60                   244.10                   251.57                   256.21                   258.15                   168.60                   189.80                   242.95                   250.27                   254.78                   256.69                   168.67                   189.92                   243.34                   250.81                   255.46                   257.40                   168.61                   189.78                   243.06                   250.52                   255.17                   257.11                   169.38                   190.72                   244.44                   251.95                   256.62                   258.59                   169.07                   190.34                   243.87                   251.35                   255.98                   257.93                   170.48                   191.70                   245.03                   252.54                   257.25                   259.22                   163.21                   183.57                   234.65                   241.83                   246.32                   248.22                   148.72                   166.46                   211.11                   217.39                   221.31                   223.02                   137.11                   150.96                   182.08                   186.09                   188.59                   189.75
20.000                   3.0000                   1.0000                   6000.0                   1000.0                   50.000                   191.07                   213.12                   268.54                   276.28                   281.09                   283.07                   190.30                   212.25                   267.08                   274.60                   279.20                   281.13                   190.35                   212.36                   267.69                   275.42                   280.24                   282.23                   190.21                   212.13                   267.26                   274.99                   279.81                   281.78                   191.13                   213.25                   268.93                   276.73                   281.59                   283.59                   190.83                   212.88                   268.23                   275.95                   280.75                   282.74                   192.01                   213.93                   269.03                   276.81                   281.70                   283.72                   183.52                   204.51                   257.19                   264.61                   269.25                   271.19                   167.00                   185.23                   231.08                   237.54                   241.57                   243.31                   154.04                   168.16                   199.85                   203.93                   206.47                   207.64
20.000                   3.0000                   1.0000                   6000.0                   1000.0                   55.000                   213.25                   236.09                   293.55                   301.61                   306.61                   308.63                   212.43                   235.12                   291.84                   299.63                   304.39                   306.35                   212.44                   235.22                   292.58                   300.63                   305.64                   307.67                   212.18                   234.84                   291.94                   299.98                   304.99                   307.00                   213.27                   236.17                   293.89                   302.00                   307.05                   309.10                   212.98                   235.77                   293.07                   301.09                   306.08                   308.10                   213.84                   236.45                   293.42                   301.51                   306.57                   308.63                   203.96                   225.55                   279.83                   287.51                   292.30                   294.27                   185.48                   204.14                   251.15                   257.80                   261.95                   263.71                   171.31                   185.67                   217.91                   222.07                   224.64                   225.83
20.000                   3.0000                   1.0000                   6000.0                   1000.0                   60.000                   235.56                   259.16                   318.71                   327.10                   332.31                   334.37                   234.68                   258.10                   316.76                   324.85                   329.79                   331.77                   234.64                   258.19                   317.61                   325.99                   331.21                   333.27                   234.26                   257.65                   316.75                   325.10                   330.31                   332.36                   235.53                   259.18                   318.97                   327.40                   332.65                   334.74                   235.22                   258.76                   318.04                   326.38                   331.55                   333.62                   235.73                   259.06                   317.93                   326.31                   331.56                   333.65                   224.43                   246.61                   302.49                   310.43                   315.38                   317.39                   204.01                   223.09                   271.25                   278.09                   282.36                   284.15                   188.68                   203.26                   236.04                   240.27                   242.90                   244.09
20.000                   3.0000                   1.0000                   6000.0                   1000.0                   65.000                   257.86                   282.24                   343.88                   352.59                   358.00                   360.10                   256.92                   281.08                   341.69                   350.08                   355.18                   357.19                   256.84                   281.15                   342.65                   351.35                   356.77                   358.88                   256.33                   280.46                   341.55                   350.22                   355.64                   357.73                   257.78                   282.20                   344.05                   352.80                   358.25                   360.38                   257.46                   281.74                   343.01                   351.66                   357.03                   359.13                   257.63                   281.66                   342.43                   351.11                   356.55                   358.67                   244.90                   267.67                   325.15                   333.35                   338.47                   340.50                   222.54                   242.03                   291.35                   298.37                   302.76                   304.58                   206.04                   220.85                   254.18                   258.48                   261.15                   262.35
20.000                   3.0000                   1.0000                   6000.0                   1000.0                   70.000                   280.17                   305.33                   369.11                   378.16                   383.78                   385.92                   279.17                   304.09                   366.73                   375.44                   380.73                   382.77                   279.04                   304.12                   367.73                   376.76                   382.39                   384.53                   278.40                   303.27                   366.41                   375.41                   381.03                   383.15                   280.00                   305.19                   369.14                   378.23                   383.88                   386.04                   279.67                   304.69                   368.00                   376.98                   382.55                   384.68                   279.50                   304.24                   366.98                   375.96                   381.58                   383.74                   265.32                   288.69                   347.83                   356.28                   361.56                   363.62                   241.05                   260.97                   311.49                   318.70                   323.21                   325.05                   223.41                   238.45                   272.33                   276.71                   279.42                   280.63
20.000                   3.0000                   1.0000                   6000.0                   1000.0                   75.000                   302.48                   328.45                   394.47                   403.88                   409.71                   411.88                   301.43                   327.13                   392.00                   401.07                   406.57                   408.64                   301.22                   327.08                   392.90                   402.28                   408.11                   410.29                   300.44                   326.07                   391.38                   400.72                   406.54                   408.70                   302.18                   328.14                   394.27                   403.69                   409.55                   411.74                   301.80                   327.57                   393.03                   402.37                   408.15                   410.31                   301.30                   326.78                   391.59                   400.90                   406.71                   408.89                   285.63                   309.64                   370.53                   379.25                   384.69                   386.78                   259.53                   279.90                   331.69                   339.09                   343.72                   345.58                   240.80                   256.08                   290.52                   294.97                   297.73                   298.95