% Model:              batchmodel_COIL_N_20_COIL_kr_1.5_COIL_kh_1_FUNZ_freq_6000_FUNZ_I_eff_1000.mph
% Version:            COMSOL 6.0.0.318
% Date:               Feb 9 2022, 00:18
% Table:              Tabella 1 - GRIGLIA_T
% COIL_N                 COIL_kr                  COIL_kh                  FUNZ_freq                FUNZ_I_eff               Time (s)                 Temperatura (degC), Point: (0, 0)Temperatura (degC), Point: (15, 0)Temperatura (degC), Point: (27.483, 0)Temperatura (degC), Point: (28.742, 0)Temperatura (degC), Point: (29.497, 0)Temperatura (degC), Point: (29.99, 0)Temperatura (degC), Point: (0, 62.5)Temperatura (degC), Point: (15, 62.5)Temperatura (degC), Point: (27.483, 62.5)Temperatura (degC), Point: (28.742, 62.5)Temperatura (degC), Point: (29.497, 62.5)Temperatura (degC), Point: (29.99, 62.5)Temperatura (degC), Point: (0, 125)Temperatura (degC), Point: (15, 125)Temperatura (degC), Point: (27.483, 125)Temperatura (degC), Point: (28.742, 125)Temperatura (degC), Point: (29.497, 125)Temperatura (degC), Point: (29.99, 125)Temperatura (degC), Point: (0, 187.5)Temperatura (degC), Point: (15, 187.5)Temperatura (degC), Point: (27.483, 187.5)Temperatura (degC), Point: (28.742, 187.5)Temperatura (degC), Point: (29.497, 187.5)Temperatura (degC), Point: (29.99, 187.5)Temperatura (degC), Point: (0, 250)Temperatura (degC), Point: (15, 250)Temperatura (degC), Point: (27.483, 250)Temperatura (degC), Point: (28.742, 250)Temperatura (degC), Point: (29.497, 250)Temperatura (degC), Point: (29.99, 250)Temperatura (degC), Point: (0, 312.5)Temperatura (degC), Point: (15, 312.5)Temperatura (degC), Point: (27.483, 312.5)Temperatura (degC), Point: (28.742, 312.5)Temperatura (degC), Point: (29.497, 312.5)Temperatura (degC), Point: (29.99, 312.5)Temperatura (degC), Point: (0, 375)Temperatura (degC), Point: (15, 375)Temperatura (degC), Point: (27.483, 375)Temperatura (degC), Point: (28.742, 375)Temperatura (degC), Point: (29.497, 375)Temperatura (degC), Point: (29.99, 375)Temperatura (degC), Point: (0, 437.5)Temperatura (degC), Point: (15, 437.5)Temperatura (degC), Point: (27.483, 437.5)Temperatura (degC), Point: (28.742, 437.5)Temperatura (degC), Point: (29.497, 437.5)Temperatura (degC), Point: (29.99, 437.5)Temperatura (degC), Point: (0, 468.75)Temperatura (degC), Point: (15, 468.75)Temperatura (degC), Point: (27.483, 468.75)Temperatura (degC), Point: (28.742, 468.75)Temperatura (degC), Point: (29.497, 468.75)Temperatura (degC), Point: (29.99, 468.75)Temperatura (degC), Point: (0, 492.19)Temperatura (degC), Point: (15, 492.19)Temperatura (degC), Point: (27.483, 492.19)Temperatura (degC), Point: (28.742, 492.19)Temperatura (degC), Point: (29.497, 492.19)Temperatura (degC), Point: (29.99, 492.19)
20.000                   1.5000                   1.0000                   6000.0                   1000.0                   0.0000                   20.000                   20.000                   20.000                   20.000                   20.005                   20.114                   20.000                   20.000                   20.000                   20.000                   20.006                   20.124                   20.000                   20.000                   20.000                   20.000                   20.008                   20.140                   20.000                   20.000                   20.000                   20.000                   20.008                   20.137                   20.000                   20.000                   20.000                   20.000                   20.006                   20.120                   20.000                   20.000                   20.000                   20.000                   20.005                   20.115                   20.000                   20.000                   20.000                   20.000                   20.007                   20.130                   20.000                   20.000                   20.000                   20.000                   20.009                   20.142                   20.000                   20.000                   20.000                   20.000                   20.005                   20.116                   20.000                   20.000                   20.000                   20.000                   20.006                   20.126
20.000                   1.5000                   1.0000                   6000.0                   1000.0                   5.0000                   22.502                   28.585                   57.904                   63.091                   66.392                   67.979                   22.515                   28.726                   59.512                   65.152                   68.795                   70.521                   22.594                   29.150                   62.669                   68.981                   73.085                   75.017                   22.582                   29.070                   62.013                   68.176                   72.172                   74.059                   22.502                   28.634                   58.673                   64.089                   67.571                   69.231                   22.455                   28.413                   57.369                   62.540                   65.859                   67.457                   22.546                   28.859                   60.351                   66.153                   69.895                   71.673                   22.622                   29.257                   63.189                   69.581                   73.733                   75.685                   22.412                   28.296                   57.040                   62.219                   65.542                   67.143                   22.668                   28.935                   58.496                   63.904                   67.420                   69.101
20.000                   1.5000                   1.0000                   6000.0                   1000.0                   10.000                   34.477                   47.464                   88.657                   95.082                   98.814                   100.38                   34.420                   47.466                   88.326                   94.478                   98.286                   100.08                   34.603                   48.122                   91.753                   98.578                   102.86                   104.83                   34.564                   47.943                   90.663                   97.278                   101.44                   103.35                   34.375                   47.274                   87.191                   92.956                   96.493                   98.120                   34.227                   46.910                   86.609                   92.592                   95.980                   97.526                   34.562                   47.792                   89.356                   95.662                   99.572                   101.38                   34.712                   48.336                   92.299                   99.174                   103.52                   105.50                   33.908                   46.319                   84.922                   90.659                   94.132                   95.754                   34.487                   47.306                   85.882                   91.599                   95.098                   96.729
20.000                   1.5000                   1.0000                   6000.0                   1000.0                   15.000                   52.291                   69.177                   113.91                   120.21                   123.98                   125.63                   52.060                   68.999                   114.33                   120.77                   124.78                   126.61                   52.288                   69.784                   118.20                   125.36                   129.86                   131.88                   52.235                   69.564                   117.11                   124.08                   128.46                   130.43                   51.991                   68.743                   113.07                   119.22                   123.02                   124.74                   51.773                   68.293                   111.88                   117.97                   121.60                   123.26                   52.342                   69.516                   115.74                   122.37                   126.50                   128.38                   52.471                   70.073                   118.85                   126.07                   130.63                   132.67                   51.001                   67.137                   109.82                   115.78                   119.45                   121.14                   51.637                   68.046                   110.58                   116.55                   120.27                   121.97
20.000                   1.5000                   1.0000                   6000.0                   1000.0                   20.000                   72.693                   91.907                   139.47                   146.03                   149.84                   151.66                   72.312                   91.665                   140.18                   146.92                   151.14                   152.98                   72.537                   92.508                   144.45                   151.95                   156.67                   158.75                   72.518                   92.369                   143.75                   151.12                   155.76                   157.81                   72.259                   91.462                   139.44                   146.13                   150.26                   152.13                   71.982                   90.930                   137.94                   144.34                   148.37                   150.20                   72.751                   92.414                   142.34                   149.37                   153.76                   155.72                   72.778                   92.858                   145.21                   152.80                   157.58                   159.69                   70.649                   89.127                   135.19                   141.53                   145.49                   147.28                   71.090                   89.587                   134.72                   141.02                   145.01                   146.81
20.000                   1.5000                   1.0000                   6000.0                   1000.0                   25.000                   95.660                   116.24                   167.12                   174.07                   177.92                   179.74                   95.169                   115.92                   167.59                   174.75                   179.17                   181.07                   95.184                   116.43                   170.95                   178.79                   183.68                   185.79                   95.314                   116.51                   170.65                   178.37                   183.19                   185.28                   95.310                   116.04                   167.74                   174.85                   179.17                   181.10                   94.869                   115.24                   165.77                   172.76                   176.87                   178.72                   95.695                   116.70                   169.42                   176.82                   181.42                   183.40                   95.557                   116.99                   172.17                   180.13                   185.13                   187.28                   92.760                   112.50                   161.31                   168.00                   172.12                   173.92                   92.884                   112.53                   160.05                   166.66                   170.79                   172.61
20.000                   1.5000                   1.0000                   6000.0                   1000.0                   30.000                   119.09                   140.87                   194.90                   202.18                   206.06                   207.85                   118.50                   140.47                   195.23                   202.81                   207.44                   209.39                   118.26                   140.59                   197.51                   205.67                   210.72                   212.87                   118.56                   140.89                   197.57                   205.63                   210.62                   212.74                   118.86                   140.96                   196.27                   203.76                   208.24                   210.22                   118.24                   139.85                   193.75                   201.32                   205.46                   207.31                   119.09                   141.25                   196.54                   204.29                   209.08                   211.09                   118.78                   141.39                   199.26                   207.58                   212.80                   214.99                   115.31                   136.12                   187.49                   194.50                   198.73                   200.54                   115.10                   135.75                   185.57                   192.47                   196.71                   198.55
20.000                   1.5000                   1.0000                   6000.0                   1000.0                   35.000                   143.49                   166.25                   222.90                   230.65                   234.93                   236.80                   142.81                   165.78                   223.08                   231.07                   235.94                   237.96                   142.34                   165.64                   225.10                   233.65                   238.95                   241.14                   142.82                   166.12                   225.22                   233.65                   238.88                   241.05                   143.49                   166.63                   224.32                   232.07                   236.70                   238.71                   142.64                   165.24                   221.50                   229.37                   233.76                   235.66                   143.52                   166.65                   224.36                   232.45                   237.46                   239.53                   143.06                   166.69                   227.26                   236.00                   241.47                   243.73                   138.82                   160.53                   214.17                   221.53                   225.98                   227.84                   138.20                   159.63                   211.10                   218.17                   222.48                   224.33
20.000                   1.5000                   1.0000                   6000.0                   1000.0                   40.000                   168.00                   191.72                   250.98                   259.19                   263.87                   265.81                   167.22                   191.16                   250.97                   259.34                   264.45                   266.53                   166.55                   190.80                   252.80                   261.75                   267.28                   269.53                   167.20                   191.45                   253.00                   261.80                   267.25                   269.47                   168.25                   192.42                   252.54                   260.57                   265.38                   267.42                   167.17                   190.75                   249.41                   257.59                   262.22                   264.17                   168.06                   192.15                   252.29                   260.73                   265.96                   268.08                   167.45                   192.10                   255.35                   264.51                   270.24                   272.56                   162.44                   185.05                   241.04                   248.75                   253.42                   255.33                   161.38                   183.56                   236.67                   243.91                   248.31                   250.19
20.000                   1.5000                   1.0000                   6000.0                   1000.0                   45.000                   192.83                   217.46                   279.31                   287.98                   293.03                   295.02                   191.95                   216.78                   278.98                   287.69                   293.01                   295.13                   191.17                   216.32                   280.85                   290.19                   295.97                   298.26                   192.00                   217.16                   281.18                   290.36                   296.03                   298.30                   193.44                   218.60                   281.32                   289.73                   294.78                   296.86                   192.14                   216.66                   277.85                   286.39                   291.26                   293.27                   192.98                   217.98                   280.58                   289.39                   294.85                   297.03                   192.25                   217.87                   283.77                   293.35                   299.33                   301.69                   186.49                   209.99                   268.52                   276.63                   281.55                   283.51                   184.82                   207.66                   262.39                   269.84                   274.37                   276.27
20.000                   1.5000                   1.0000                   6000.0                   1000.0                   50.000                   217.66                   243.20                   307.64                   316.77                   322.20                   324.23                   216.68                   242.41                   306.98                   316.05                   321.58                   323.73                   215.79                   241.85                   308.90                   318.64                   324.66                   326.99                   216.80                   242.87                   309.37                   318.92                   324.82                   327.12                   218.64                   244.79                   310.10                   318.88                   324.18                   326.30                   217.10                   242.57                   306.29                   315.19                   320.29                   322.36                   217.90                   243.82                   308.88                   318.06                   323.75                   325.98                   217.05                   243.63                   312.20                   322.19                   328.41                   330.83                   210.53                   234.93                   295.99                   304.51                   309.67                   311.69                   208.25                   231.76                   288.11                   295.77                   300.42                   302.36
20.000                   1.5000                   1.0000                   6000.0                   1000.0                   55.000                   242.48                   268.94                   335.96                   345.57                   351.36                   353.45                   241.41                   268.03                   334.99                   344.40                   350.14                   352.33                   240.40                   267.37                   336.94                   347.09                   353.35                   355.73                   241.60                   268.58                   337.56                   347.48                   353.60                   355.95                   243.83                   270.97                   338.88                   348.04                   353.59                   355.75                   242.07                   268.48                   334.73                   343.99                   349.33                   351.45                   242.82                   269.66                   337.18                   346.72                   352.65                   354.93                   241.85                   269.39                   340.62                   351.02                   357.50                   359.96                   234.58                   259.87                   323.47                   332.38                   337.79                   339.87                   231.69                   255.85                   313.82                   321.70                   326.48                   328.44
20.000                   1.5000                   1.0000                   6000.0                   1000.0                   60.000                   267.00                   294.27                   363.57                   373.55                   379.63                   381.74                   265.85                   293.28                   362.38                   372.09                   378.01                   380.23                   264.76                   292.56                   364.47                   374.98                   381.47                   383.89                   266.15                   293.98                   365.31                   375.58                   381.91                   384.29                   268.62                   296.59                   366.73                   376.22                   381.98                   384.17                   266.64                   293.85                   362.14                   371.62                   377.08                   379.22                   267.35                   294.99                   364.70                   374.57                   380.70                   383.01                   266.31                   294.72                   368.39                   379.18                   385.89                   388.39                   258.29                   284.35                   350.11                   359.34                   364.94                   367.05                   254.75                   279.47                   338.81                   346.87                   351.78                   353.76
20.000                   1.5000                   1.0000                   6000.0                   1000.0                   65.000                   291.32                   319.36                   390.74                   401.05                   407.36                   409.48                   290.11                   318.30                   389.39                   399.38                   405.46                   407.69                   288.96                   317.54                   391.69                   402.55                   409.25                   411.69                   290.54                   319.20                   392.80                   403.41                   409.92                   412.32                   293.16                   321.87                   394.02                   403.81                   409.76                   411.96                   290.96                   318.88                   388.92                   398.55                   404.05                   406.18                   291.65                   320.02                   391.73                   401.91                   408.23                   410.56                   290.56                   319.77                   395.76                   406.93                   413.86                   416.39                   281.79                   308.57                   376.24                   385.72                   391.49                   393.62                   277.58                   302.79                   363.34                   371.58                   376.63                   378.62
20.000                   1.5000                   1.0000                   6000.0                   1000.0                   70.000                   315.65                   344.44                   417.90                   428.55                   435.08                   437.22                   314.37                   343.32                   416.40                   426.66                   432.90                   435.16                   313.15                   342.52                   418.90                   430.11                   437.03                   439.50                   314.94                   344.41                   420.29                   431.23                   437.94                   440.36                   317.69                   347.15                   421.30                   431.41                   437.54                   439.76                   315.29                   343.92                   415.70                   425.48                   431.02                   433.14                   315.94                   345.04                   418.76                   429.25                   435.76                   438.12                   314.81                   344.83                   423.14                   434.67                   441.83                   444.39                   305.29                   332.78                   402.36                   412.11                   418.04                   420.20                   300.41                   326.10                   387.87                   396.30                   401.48                   403.47
20.000                   1.5000                   1.0000                   6000.0                   1000.0                   75.000                   339.97                   369.53                   445.07                   456.05                   462.81                   464.96                   338.64                   368.34                   443.40                   453.95                   460.35                   462.63                   337.35                   367.50                   446.11                   457.68                   464.81                   467.30                   339.34                   369.62                   447.78                   459.06                   465.95                   468.40                   342.23                   372.43                   448.59                   459.00                   465.32                   467.56                   339.62                   368.95                   442.48                   452.40                   457.99                   460.10                   340.24                   370.07                   445.79                   456.60                   463.30                   465.67                   339.06                   369.88                   450.51                   462.42                   469.80                   472.38                   328.80                   356.99                   428.49                   438.49                   444.60                   446.77                   323.25                   349.42                   412.40                   421.02                   426.32                   428.33