% Model:              batchmodel_COIL_N_20_COIL_kr_1.5_COIL_kh_1.5_FUNZ_freq_2000_FUNZ_I_eff_1000.mph
% Version:            COMSOL 6.0.0.318
% Date:               Feb 9 2022, 00:35
% Table:              Tabella 1 - GRIGLIA_T
% COIL_N                 COIL_kr                  COIL_kh                  FUNZ_freq                FUNZ_I_eff               Time (s)                 Temperatura (degC), Point: (0, 0)Temperatura (degC), Point: (15, 0)Temperatura (degC), Point: (25.641, 0)Temperatura (degC), Point: (27.821, 0)Temperatura (degC), Point: (29.128, 0)Temperatura (degC), Point: (29.99, 0)Temperatura (degC), Point: (0, 62.5)Temperatura (degC), Point: (15, 62.5)Temperatura (degC), Point: (25.641, 62.5)Temperatura (degC), Point: (27.821, 62.5)Temperatura (degC), Point: (29.128, 62.5)Temperatura (degC), Point: (29.99, 62.5)Temperatura (degC), Point: (0, 125)Temperatura (degC), Point: (15, 125)Temperatura (degC), Point: (25.641, 125)Temperatura (degC), Point: (27.821, 125)Temperatura (degC), Point: (29.128, 125)Temperatura (degC), Point: (29.99, 125)Temperatura (degC), Point: (0, 187.5)Temperatura (degC), Point: (15, 187.5)Temperatura (degC), Point: (25.641, 187.5)Temperatura (degC), Point: (27.821, 187.5)Temperatura (degC), Point: (29.128, 187.5)Temperatura (degC), Point: (29.99, 187.5)Temperatura (degC), Point: (0, 250)Temperatura (degC), Point: (15, 250)Temperatura (degC), Point: (25.641, 250)Temperatura (degC), Point: (27.821, 250)Temperatura (degC), Point: (29.128, 250)Temperatura (degC), Point: (29.99, 250)Temperatura (degC), Point: (0, 312.5)Temperatura (degC), Point: (15, 312.5)Temperatura (degC), Point: (25.641, 312.5)Temperatura (degC), Point: (27.821, 312.5)Temperatura (degC), Point: (29.128, 312.5)Temperatura (degC), Point: (29.99, 312.5)Temperatura (degC), Point: (0, 375)Temperatura (degC), Point: (15, 375)Temperatura (degC), Point: (25.641, 375)Temperatura (degC), Point: (27.821, 375)Temperatura (degC), Point: (29.128, 375)Temperatura (degC), Point: (29.99, 375)Temperatura (degC), Point: (0, 437.5)Temperatura (degC), Point: (15, 437.5)Temperatura (degC), Point: (25.641, 437.5)Temperatura (degC), Point: (27.821, 437.5)Temperatura (degC), Point: (29.128, 437.5)Temperatura (degC), Point: (29.99, 437.5)Temperatura (degC), Point: (0, 468.75)Temperatura (degC), Point: (15, 468.75)Temperatura (degC), Point: (25.641, 468.75)Temperatura (degC), Point: (27.821, 468.75)Temperatura (degC), Point: (29.128, 468.75)Temperatura (degC), Point: (29.99, 468.75)Temperatura (degC), Point: (0, 492.19)Temperatura (degC), Point: (15, 492.19)Temperatura (degC), Point: (25.641, 492.19)Temperatura (degC), Point: (27.821, 492.19)Temperatura (degC), Point: (29.128, 492.19)Temperatura (degC), Point: (29.99, 492.19)
20.000                   1.5000                   1.5000                   2000.0                   1000.0                   0.0000                   20.000                   20.000                   20.000                   20.000                   20.001                   20.046                   20.000                   20.000                   20.000                   20.000                   20.001                   20.048                   20.000                   20.000                   20.000                   20.000                   20.002                   20.050                   20.000                   20.000                   20.000                   20.000                   20.002                   20.049                   20.000                   20.000                   20.000                   20.000                   20.001                   20.046                   20.000                   20.000                   20.000                   20.000                   20.001                   20.047                   20.000                   20.000                   20.000                   20.000                   20.002                   20.049                   20.000                   20.000                   20.000                   20.000                   20.002                   20.050                   20.000                   20.000                   20.000                   20.000                   20.001                   20.047                   20.000                   20.000                   20.000                   20.000                   20.001                   20.038
20.000                   1.5000                   1.5000                   2000.0                   1000.0                   5.0000                   21.148                   24.660                   38.255                   43.168                   46.562                   48.282                   21.128                   24.624                   38.702                   44.016                   47.516                   49.257                   21.153                   24.747                   39.135                   44.554                   48.203                   50.008                   21.146                   24.720                   39.148                   44.591                   48.177                   49.952                   21.119                   24.550                   38.120                   43.161                   46.588                   48.305                   21.122                   24.574                   38.302                   43.462                   46.881                   48.608                   21.140                   24.688                   38.879                   44.139                   47.763                   49.583                   21.155                   24.771                   39.403                   44.908                   48.545                   50.355                   21.073                   24.410                   37.811                   42.764                   46.037                   47.737                   21.010                   23.812                   34.197                   37.992                   40.508                   41.802
20.000                   1.5000                   1.5000                   2000.0                   1000.0                   10.000                   27.870                   35.241                   52.899                   58.142                   61.549                   63.193                   27.770                   35.153                   53.164                   58.588                   62.128                   63.829                   27.864                   35.397                   53.909                   59.540                   63.236                   65.008                   27.848                   35.348                   53.713                   59.262                   62.893                   64.633                   27.763                   35.067                   52.725                   58.006                   61.446                   63.105                   27.746                   35.048                   52.736                   58.033                   61.486                   63.150                   27.796                   35.254                   53.567                   59.126                   62.769                   64.518                   27.844                   35.388                   53.947                   59.584                   63.281                   65.051                   27.319                   34.339                   51.602                   56.841                   60.280                   61.943                   26.583                   32.446                   46.050                   50.050                   52.651                   53.953
20.000                   1.5000                   1.5000                   2000.0                   1000.0                   15.000                   37.563                   46.827                   66.161                   71.575                   75.060                   76.722                   37.420                   46.743                   66.427                   71.985                   75.578                   77.289                   37.550                   47.035                   67.276                   73.063                   76.826                   78.613                   37.529                   46.960                   66.963                   72.640                   76.322                   78.071                   37.419                   46.663                   66.063                   71.516                   75.037                   76.715                   37.371                   46.601                   65.984                   71.435                   74.959                   76.641                   37.439                   46.849                   66.890                   72.612                   76.331                   78.097                   37.466                   46.947                   67.184                   72.974                   76.741                   78.528                   36.332                   45.200                   64.146                   69.561                   73.082                   74.759                   34.748                   42.192                   57.203                   61.338                   63.998                   65.316
20.000                   1.5000                   1.5000                   2000.0                   1000.0                   20.000                   48.377                   58.820                   79.282                   84.842                   88.402                   90.080                   48.216                   58.753                   79.569                   85.255                   88.907                   90.631                   48.348                   59.041                   80.418                   86.339                   90.166                   91.968                   48.326                   58.958                   80.070                   85.875                   89.618                   91.380                   48.212                   58.667                   79.239                   84.843                   88.438                   90.133                   48.124                   58.551                   79.063                   84.654                   88.249                   89.947                   48.221                   58.852                   80.054                   85.921                   89.714                   91.494                   48.175                   58.866                   80.246                   86.180                   90.018                   91.820                   46.389                   56.413                   76.489                   82.049                   85.642                   87.330                   44.008                   52.446                   68.393                   72.638                   75.349                   76.679
20.000                   1.5000                   1.5000                   2000.0                   1000.0                   25.000                   60.154                   71.204                   92.352                   98.036                   101.67                   103.36                   59.994                   71.155                   92.651                   98.449                   102.16                   103.90                   60.092                   71.395                   93.426                   99.455                   103.34                   105.16                   60.071                   71.311                   93.076                   98.992                   102.80                   104.57                   59.975                   71.054                   92.330                   98.060                   101.73                   103.44                   59.831                   70.862                   92.031                   97.738                   101.40                   103.11                   59.980                   71.241                   93.136                   99.125                   102.99                   104.78                   59.805                   71.119                   93.195                   99.255                   103.16                   104.98                   57.344                   67.969                   88.733                   94.417                   98.079                   99.780                   54.249                   63.204                   79.707                   84.040                   86.796                   88.136
20.000                   1.5000                   1.5000                   2000.0                   1000.0                   30.000                   71.930                   83.589                   105.42                   111.23                   114.93                   116.64                   71.772                   83.558                   105.73                   111.64                   115.41                   117.17                   71.835                   83.749                   106.43                   112.57                   116.52                   118.35                   71.816                   83.664                   106.08                   112.11                   115.97                   117.76                   71.739                   83.441                   105.42                   111.28                   115.01                   116.74                   71.538                   83.174                   105.00                   110.82                   114.55                   116.27                   71.739                   83.630                   106.22                   112.33                   116.26                   118.07                   71.435                   83.373                   106.14                   112.33                   116.31                   118.14                   68.298                   79.525                   100.98                   106.78                   110.52                   112.23                   64.489                   73.961                   91.021                   95.442                   98.243                   99.594
20.000                   1.5000                   1.5000                   2000.0                   1000.0                   35.000                   84.455                   96.328                   118.57                   124.49                   128.27                   130.00                   84.305                   96.305                   118.88                   124.90                   128.74                   130.51                   84.294                   96.402                   119.44                   125.68                   129.69                   131.54                   84.288                   96.338                   119.14                   125.27                   129.20                   130.99                   84.241                   96.158                   118.54                   124.51                   128.32                   130.07                   83.959                   95.783                   117.95                   123.87                   127.66                   129.40                   84.256                   96.366                   119.37                   125.59                   129.60                   131.42                   83.750                   95.902                   119.08                   125.38                   129.43                   131.28                   79.951                   91.380                   113.20                   119.11                   122.90                   124.63                   75.559                   85.196                   102.52                   107.01                   109.85                   111.22
20.000                   1.5000                   1.5000                   2000.0                   1000.0                   40.000                   97.123                   109.14                   131.74                   137.77                   141.62                   143.36                   96.983                   109.12                   132.04                   138.17                   142.08                   143.86                   96.891                   109.11                   132.45                   138.79                   142.86                   144.72                   96.900                   109.07                   132.20                   138.43                   142.43                   144.24                   96.885                   108.94                   131.67                   137.76                   141.64                   143.40                   96.518                   108.45                   130.90                   136.92                   140.77                   142.52                   96.919                   109.17                   132.52                   138.86                   142.94                   144.79                   96.197                   108.48                   132.01                   138.43                   142.55                   144.42                   91.739                   103.29                   125.43                   131.43                   135.28                   137.01                   86.789                   96.524                   114.06                   118.62                   121.50                   122.87
20.000                   1.5000                   1.5000                   2000.0                   1000.0                   45.000                   109.90                   122.04                   145.00                   151.14                   155.06                   156.82                   109.76                   122.02                   145.28                   151.52                   155.50                   157.29                   109.58                   121.91                   145.55                   151.99                   156.13                   158.00                   109.61                   121.90                   145.34                   151.68                   155.75                   157.56                   109.62                   121.80                   144.88                   151.07                   155.02                   156.80                   109.15                   121.18                   143.91                   150.02                   153.93                   155.70                   109.68                   122.07                   145.78                   152.23                   156.38                   158.24                   108.72                   121.13                   145.01                   151.53                   155.73                   157.61                   103.62                   115.28                   137.71                   143.81                   147.72                   149.46                   98.157                   107.97                   125.71                   130.33                   133.25                   134.63
20.000                   1.5000                   1.5000                   2000.0                   1000.0                   50.000                   122.91                   135.17                   158.46                   164.72                   168.71                   170.48                   122.76                   135.12                   158.70                   165.05                   169.10                   170.91                   122.49                   134.91                   158.86                   165.40                   169.60                   171.49                   122.53                   134.91                   158.68                   165.12                   169.26                   171.08                   122.57                   134.85                   158.25                   164.55                   168.57                   170.36                   121.95                   134.05                   157.04                   163.25                   167.22                   169.00                   122.68                   135.18                   159.24                   165.81                   170.03                   171.91                   121.41                   133.93                   158.13                   164.76                   169.03                   170.92                   115.70                   127.44                   150.14                   156.32                   160.28                   162.03                   109.83                   119.70                   137.61                   142.29                   145.25                   146.63
20.000                   1.5000                   1.5000                   2000.0                   1000.0                   55.000                   135.93                   148.30                   171.93                   178.29                   182.35                   184.15                   135.76                   148.22                   172.12                   178.58                   182.71                   184.53                   135.39                   147.91                   172.16                   178.81                   183.08                   184.98                   135.44                   147.93                   172.01                   178.56                   182.76                   184.60                   135.51                   147.90                   171.62                   178.03                   182.12                   183.93                   134.75                   146.92                   170.18                   176.48                   180.51                   182.30                   135.67                   148.29                   172.70                   179.38                   183.69                   185.57                   134.10                   146.72                   171.25                   177.99                   182.33                   184.24                   127.78                   139.61                   162.56                   168.83                   172.85                   174.61                   121.50                   131.42                   149.51                   154.24                   157.24                   158.63
20.000                   1.5000                   1.5000                   2000.0                   1000.0                   60.000                   148.94                   161.42                   185.39                   191.87                   196.00                   197.81                   148.75                   161.32                   185.55                   192.11                   196.31                   198.15                   148.29                   160.91                   185.47                   192.22                   196.56                   198.47                   148.36                   160.94                   185.34                   192.00                   196.27                   198.12                   148.46                   160.95                   184.99                   191.51                   195.67                   197.49                   147.55                   159.80                   183.32                   189.71                   193.81                   195.61                   148.67                   161.40                   186.16                   192.96                   197.34                   199.24                   146.79                   159.52                   184.37                   191.22                   195.63                   197.55                   139.87                   151.77                   174.98                   181.34                   185.41                   187.18                   133.17                   143.14                   161.41                   166.20                   169.24                   170.64
20.000                   1.5000                   1.5000                   2000.0                   1000.0                   65.000                   161.96                   174.55                   198.85                   205.44                   209.65                   211.47                   161.75                   174.42                   198.97                   205.65                   209.91                   211.76                   161.20                   173.90                   198.77                   205.63                   210.04                   211.95                   161.28                   173.96                   198.67                   205.44                   209.78                   211.64                   161.41                   174.00                   198.36                   204.99                   209.23                   211.06                   160.35                   172.67                   196.46                   202.94                   207.10                   208.91                   161.66                   174.51                   199.62                   206.54                   210.99                   212.90                   159.48                   172.31                   197.49                   204.45                   208.94                   210.87                   151.95                   163.93                   187.41                   193.85                   197.98                   199.76                   144.84                   154.87                   173.30                   178.15                   181.23                   182.64
20.000                   1.5000                   1.5000                   2000.0                   1000.0                   70.000                   175.02                   187.76                   212.44                   219.15                   223.43                   225.26                   174.81                   187.62                   212.54                   219.35                   223.70                   225.56                   174.19                   187.03                   212.29                   219.27                   223.76                   225.69                   174.28                   187.10                   212.20                   219.10                   223.53                   225.41                   174.41                   187.14                   211.88                   218.63                   222.94                   224.79                   173.28                   185.72                   209.88                   216.48                   220.71                   222.54                   174.71                   187.69                   213.20                   220.24                   224.77                   226.70                   172.23                   185.19                   210.75                   217.84                   222.40                   224.34                   164.13                   176.23                   200.04                   206.59                   210.79                   212.58                   156.64                   166.74                   185.37                   190.29                   193.41                   194.82
20.000                   1.5000                   1.5000                   2000.0                   1000.0                   75.000                   188.20                   201.13                   226.28                   233.13                   237.50                   239.35                   187.99                   201.01                   226.46                   233.43                   237.89                   239.77                   187.37                   200.45                   226.28                   233.44                   238.04                   239.99                   187.45                   200.51                   226.18                   233.26                   237.80                   239.70                   187.57                   200.51                   225.72                   232.61                   237.01                   238.87                   186.47                   199.17                   223.92                   230.70                   235.04                   236.89                   187.85                   201.04                   227.03                   234.22                   238.84                   240.78                   185.08                   198.26                   224.33                   231.57                   236.22                   238.18                   176.52                   188.82                   213.13                   219.85                   224.15                   225.97                   168.71                   178.92                   197.82                   202.81                   205.98                   207.40