% Model:              batchmodel_COIL_N_20_COIL_kr_3_COIL_kh_1.5_FUNZ_freq_6000_FUNZ_I_eff_1000.mph
% Version:            COMSOL 6.0.0.318
% Date:               Feb 9 2022, 03:27
% Table:              Tabella 1 - GRIGLIA_T
% COIL_N                 COIL_kr                  COIL_kh                  FUNZ_freq                FUNZ_I_eff               Time (s)                 Temperatura (degC), Point: (0, 0)Temperatura (degC), Point: (15, 0)Temperatura (degC), Point: (27.483, 0)Temperatura (degC), Point: (28.742, 0)Temperatura (degC), Point: (29.497, 0)Temperatura (degC), Point: (29.99, 0)Temperatura (degC), Point: (0, 62.5)Temperatura (degC), Point: (15, 62.5)Temperatura (degC), Point: (27.483, 62.5)Temperatura (degC), Point: (28.742, 62.5)Temperatura (degC), Point: (29.497, 62.5)Temperatura (degC), Point: (29.99, 62.5)Temperatura (degC), Point: (0, 125)Temperatura (degC), Point: (15, 125)Temperatura (degC), Point: (27.483, 125)Temperatura (degC), Point: (28.742, 125)Temperatura (degC), Point: (29.497, 125)Temperatura (degC), Point: (29.99, 125)Temperatura (degC), Point: (0, 187.5)Temperatura (degC), Point: (15, 187.5)Temperatura (degC), Point: (27.483, 187.5)Temperatura (degC), Point: (28.742, 187.5)Temperatura (degC), Point: (29.497, 187.5)Temperatura (degC), Point: (29.99, 187.5)Temperatura (degC), Point: (0, 250)Temperatura (degC), Point: (15, 250)Temperatura (degC), Point: (27.483, 250)Temperatura (degC), Point: (28.742, 250)Temperatura (degC), Point: (29.497, 250)Temperatura (degC), Point: (29.99, 250)Temperatura (degC), Point: (0, 312.5)Temperatura (degC), Point: (15, 312.5)Temperatura (degC), Point: (27.483, 312.5)Temperatura (degC), Point: (28.742, 312.5)Temperatura (degC), Point: (29.497, 312.5)Temperatura (degC), Point: (29.99, 312.5)Temperatura (degC), Point: (0, 375)Temperatura (degC), Point: (15, 375)Temperatura (degC), Point: (27.483, 375)Temperatura (degC), Point: (28.742, 375)Temperatura (degC), Point: (29.497, 375)Temperatura (degC), Point: (29.99, 375)Temperatura (degC), Point: (0, 437.5)Temperatura (degC), Point: (15, 437.5)Temperatura (degC), Point: (27.483, 437.5)Temperatura (degC), Point: (28.742, 437.5)Temperatura (degC), Point: (29.497, 437.5)Temperatura (degC), Point: (29.99, 437.5)Temperatura (degC), Point: (0, 468.75)Temperatura (degC), Point: (15, 468.75)Temperatura (degC), Point: (27.483, 468.75)Temperatura (degC), Point: (28.742, 468.75)Temperatura (degC), Point: (29.497, 468.75)Temperatura (degC), Point: (29.99, 468.75)Temperatura (degC), Point: (0, 492.19)Temperatura (degC), Point: (15, 492.19)Temperatura (degC), Point: (27.483, 492.19)Temperatura (degC), Point: (28.742, 492.19)Temperatura (degC), Point: (29.497, 492.19)Temperatura (degC), Point: (29.99, 492.19)
20.000                   3.0000                   1.5000                   6000.0                   1000.0                   0.0000                   20.000                   20.000                   20.000                   20.000                   20.006                   20.121                   20.000                   20.000                   20.000                   20.000                   20.006                   20.121                   20.000                   20.000                   20.000                   20.000                   20.006                   20.121                   20.000                   20.000                   20.000                   20.000                   20.006                   20.121                   20.000                   20.000                   20.000                   20.000                   20.006                   20.121                   20.000                   20.000                   20.000                   20.000                   20.006                   20.121                   20.000                   20.000                   20.000                   20.000                   20.006                   20.121                   20.000                   20.000                   20.000                   20.000                   20.005                   20.119                   20.000                   20.000                   20.000                   20.000                   20.005                   20.110                   20.000                   20.000                   20.000                   20.000                   20.002                   20.084
20.000                   3.0000                   1.5000                   6000.0                   1000.0                   5.0000                   21.610                   27.150                   57.799                   63.930                   67.763                   69.654                   21.600                   27.099                   57.160                   63.073                   66.792                   68.630                   21.608                   27.166                   57.959                   64.096                   68.028                   69.927                   21.603                   27.120                   57.353                   63.319                   67.124                   68.962                   21.600                   27.098                   57.273                   63.310                   67.130                   69.005                   21.556                   26.905                   56.375                   62.296                   66.106                   67.978                   21.561                   26.896                   55.449                   60.939                   64.417                   66.134                   21.755                   27.754                   58.804                   64.428                   67.583                   69.117                   21.729                   27.541                   56.782                   61.642                   64.121                   65.239                   23.238                   28.896                   51.009                   54.506                   56.319                   57.182
20.000                   3.0000                   1.5000                   6000.0                   1000.0                   10.000                   31.889                   44.407                   82.551                   88.243                   91.836                   93.521                   31.836                   44.283                   82.290                   87.979                   91.570                   93.255                   31.878                   44.382                   82.490                   88.181                   91.776                   93.461                   31.834                   44.280                   82.270                   87.955                   91.547                   93.233                   31.821                   44.255                   82.239                   87.925                   91.516                   93.201                   31.579                   43.834                   81.563                   87.236                   90.823                   92.507                   31.553                   43.724                   81.281                   86.958                   90.547                   92.234                   32.238                   44.808                   82.284                   87.843                   91.362                   93.020                   31.549                   42.958                   76.533                   81.520                   84.693                   86.210                   32.517                   42.199                   67.189                   70.599                   72.749                   73.823
20.000                   3.0000                   1.5000                   6000.0                   1000.0                   15.000                   47.543                   63.862                   106.09                   112.01                   115.74                   117.46                   47.458                   63.734                   106.03                   111.97                   115.70                   117.42                   47.511                   63.811                   106.05                   111.98                   115.71                   117.43                   47.442                   63.705                   105.95                   111.88                   115.61                   117.33                   47.424                   63.686                   105.93                   111.86                   115.58                   117.30                   47.014                   63.152                   105.29                   111.22                   114.94                   116.66                   46.981                   63.059                   105.26                   111.21                   114.95                   116.67                   47.631                   63.643                   104.89                   110.69                   114.34                   116.02                   45.519                   59.753                   96.473                   101.69                   104.98                   106.52                   44.520                   56.043                   82.931                   86.448                   88.645                   89.728
20.000                   3.0000                   1.5000                   6000.0                   1000.0                   20.000                   66.330                   84.598                   129.53                   135.72                   139.60                   141.36                   66.236                   84.481                   129.52                   135.73                   139.61                   141.37                   66.286                   84.536                   129.50                   135.69                   139.57                   141.33                   66.208                   84.439                   129.43                   135.63                   139.52                   141.28                   66.186                   84.419                   129.41                   135.60                   139.49                   141.25                   65.680                   83.835                   128.79                   134.98                   138.86                   140.62                   65.662                   83.784                   128.85                   135.06                   138.95                   140.71                   65.729                   83.491                   127.19                   133.23                   137.01                   138.73                   61.705                   77.366                   116.05                   121.45                   124.83                   126.40                   58.581                   71.047                   99.098                   102.71                   104.95                   106.04
20.000                   3.0000                   1.5000                   6000.0                   1000.0                   25.000                   85.568                   105.54                   153.00                   159.45                   163.49                   165.29                   85.468                   105.44                   153.03                   159.50                   163.54                   165.34                   85.512                   105.47                   152.97                   159.43                   163.46                   165.26                   85.429                   105.39                   152.94                   159.40                   163.44                   165.24                   85.402                   105.36                   152.91                   159.37                   163.41                   165.21                   84.814                   104.74                   152.30                   158.75                   162.79                   164.59                   84.809                   104.72                   152.42                   158.90                   162.94                   164.75                   84.198                   103.49                   149.46                   155.74                   159.66                   161.42                   78.204                   95.103                   135.60                   141.17                   144.66                   146.25                   72.984                   86.263                   115.37                   119.06                   121.35                   122.46
20.000                   3.0000                   1.5000                   6000.0                   1000.0                   30.000                   106.65                   127.35                   176.60                   183.31                   187.50                   189.35                   106.55                   127.26                   176.61                   183.34                   187.54                   189.38                   106.59                   127.28                   176.57                   183.28                   187.47                   189.32                   106.51                   127.20                   176.53                   183.25                   187.45                   189.29                   106.47                   127.17                   176.50                   183.21                   187.41                   189.25                   105.86                   126.54                   175.88                   182.60                   186.79                   188.63                   105.86                   126.55                   175.98                   182.71                   186.90                   188.74                   104.19                   124.11                   171.67                   178.17                   182.23                   184.02                   95.983                   113.35                   155.03                   160.77                   164.34                   165.96                   88.785                   102.35                   132.06                   135.83                   138.16                   139.27
20.000                   3.0000                   1.5000                   6000.0                   1000.0                   35.000                   127.97                   149.35                   200.38                   207.35                   211.70                   213.58                   127.89                   149.27                   200.38                   207.36                   211.72                   213.60                   127.91                   149.28                   200.34                   207.32                   211.67                   213.55                   127.84                   149.22                   200.30                   207.28                   211.64                   213.52                   127.80                   149.18                   200.25                   207.23                   211.58                   213.47                   127.16                   148.55                   199.64                   206.62                   210.96                   212.84                   127.16                   148.55                   199.69                   206.67                   211.02                   212.90                   124.33                   144.84                   193.96                   200.69                   204.88                   206.71                   113.93                   131.73                   174.56                   180.46                   184.13                   185.78                   104.85                   118.67                   148.95                   152.79                   155.16                   156.29
20.000                   3.0000                   1.5000                   6000.0                   1000.0                   40.000                   150.10                   171.98                   224.71                   231.96                   236.48                   238.40                   150.02                   171.91                   224.70                   231.96                   236.49                   238.41                   150.04                   171.92                   224.67                   231.92                   236.44                   238.36                   149.96                   171.85                   224.63                   231.88                   236.41                   238.33                   149.92                   171.80                   224.56                   231.81                   236.34                   238.26                   149.29                   171.19                   223.95                   231.20                   235.72                   237.64                   149.22                   171.12                   223.89                   231.14                   235.65                   237.57                   145.00                   165.93                   216.50                   223.46                   227.80                   229.66                   132.42                   150.52                   194.40                   200.46                   204.24                   205.91                   121.74                   135.73                   166.48                   170.39                   172.80                   173.94
20.000                   3.0000                   1.5000                   6000.0                   1000.0                   45.000                   172.22                   194.61                   249.04                   256.57                   261.26                   263.22                   172.15                   194.55                   249.03                   256.56                   261.26                   263.22                   172.16                   194.55                   249.00                   256.53                   261.22                   263.18                   172.09                   194.49                   248.95                   256.48                   261.17                   263.13                   172.03                   194.43                   248.87                   256.40                   261.09                   263.04                   171.42                   193.82                   248.27                   255.79                   260.47                   262.43                   171.28                   193.69                   248.10                   255.60                   260.28                   262.24                   165.67                   187.03                   239.05                   246.24                   250.72                   252.61                   150.90                   169.31                   214.24                   220.47                   224.36                   226.05                   138.64                   152.79                   184.01                   187.99                   190.44                   191.59
20.000                   3.0000                   1.5000                   6000.0                   1000.0                   50.000                   194.34                   217.24                   273.38                   281.18                   286.04                   288.04                   194.28                   217.19                   273.36                   281.16                   286.03                   288.03                   194.28                   217.18                   273.33                   281.13                   285.99                   287.99                   194.22                   217.12                   273.28                   281.08                   285.94                   287.94                   194.15                   217.06                   273.18                   280.98                   285.84                   287.83                   193.54                   216.46                   272.58                   280.37                   285.23                   287.22                   193.35                   216.26                   272.30                   280.07                   284.92                   286.91                   186.33                   208.12                   261.59                   269.02                   273.64                   275.57                   169.39                   188.10                   234.08                   240.48                   244.47                   246.19                   155.54                   169.86                   201.54                   205.58                   208.08                   209.24
20.000                   3.0000                   1.5000                   6000.0                   1000.0                   55.000                   216.60                   240.05                   298.03                   306.13                   311.17                   313.21                   216.55                   240.01                   298.00                   306.11                   311.16                   313.20                   216.55                   240.00                   297.99                   306.08                   311.12                   313.16                   216.48                   239.95                   297.93                   306.02                   311.07                   313.10                   216.41                   239.87                   297.82                   305.91                   310.95                   312.99                   215.81                   239.28                   297.22                   305.31                   310.34                   312.38                   215.52                   238.97                   296.78                   304.84                   309.87                   311.90                   207.05                   229.30                   284.33                   292.00                   296.78                   298.74                   187.94                   206.98                   254.06                   260.63                   264.73                   266.48                   172.60                   187.09                   219.25                   223.37                   225.91                   227.08
20.000                   3.0000                   1.5000                   6000.0                   1000.0                   60.000                   239.14                   263.25                   323.34                   331.78                   337.03                   339.11                   239.10                   263.22                   323.32                   331.77                   337.03                   339.12                   239.10                   263.21                   323.32                   331.76                   337.01                   339.09                   239.04                   263.16                   323.26                   331.69                   336.95                   339.03                   238.96                   263.07                   323.14                   331.57                   336.82                   338.90                   238.37                   262.50                   322.55                   330.98                   336.23                   338.31                   237.92                   262.01                   321.86                   330.25                   335.48                   337.55                   227.86                   250.66                   307.46                   315.42                   320.37                   322.37                   206.65                   226.05                   274.33                   281.09                   285.31                   287.08                   190.01                   204.67                   237.35                   241.54                   244.13                   245.30
20.000                   3.0000                   1.5000                   6000.0                   1000.0                   65.000                   261.68                   286.45                   348.65                   357.43                   362.89                   365.02                   261.65                   286.42                   348.64                   357.43                   362.91                   365.03                   261.65                   286.42                   348.65                   357.43                   362.89                   365.01                   261.59                   286.37                   348.58                   357.36                   362.83                   364.95                   261.50                   286.27                   348.46                   357.23                   362.69                   364.82                   260.93                   285.72                   347.89                   356.66                   362.12                   364.24                   260.33                   285.04                   346.93                   355.66                   361.09                   363.20                   248.66                   272.02                   330.59                   338.83                   343.97                   346.00                   225.35                   245.13                   294.60                   301.55                   305.90                   307.69                   207.41                   222.25                   255.44                   259.70                   262.34                   263.52
20.000                   3.0000                   1.5000                   6000.0                   1000.0                   70.000                   284.22                   309.65                   373.96                   383.08                   388.76                   390.92                   284.20                   309.63                   373.96                   383.09                   388.78                   390.94                   284.20                   309.63                   373.98                   383.10                   388.77                   390.94                   284.14                   309.58                   373.91                   383.03                   388.71                   390.88                   284.05                   309.48                   373.77                   382.89                   388.57                   390.73                   283.50                   308.93                   373.22                   382.33                   388.00                   390.17                   282.73                   308.07                   372.01                   381.06                   386.70                   388.86                   269.47                   293.38                   353.72                   362.25                   367.56                   369.63                   244.06                   264.20                   314.86                   322.01                   326.48                   328.30                   224.82                   239.84                   273.54                   277.87                   280.55                   281.75
20.000                   3.0000                   1.5000                   6000.0                   1000.0                   75.000                   306.71                   332.83                   399.31                   408.78                   414.67                   416.87                   306.69                   332.82                   399.32                   408.80                   414.70                   416.91                   306.69                   332.82                   399.35                   408.82                   414.70                   416.91                   306.64                   332.77                   399.28                   408.76                   414.65                   416.85                   306.54                   332.66                   399.14                   408.61                   414.49                   416.70                   306.00                   332.13                   398.59                   408.05                   413.94                   416.14                   305.06                   331.07                   397.12                   406.52                   412.37                   414.56                   290.21                   314.72                   376.91                   385.74                   391.23                   393.33                   262.75                   283.31                   335.26                   342.61                   347.20                   349.04                   242.26                   257.48                   291.70                   296.11                   298.84                   300.04