% Model:              batchmodel_COIL_N_20_COIL_kr_1.5_COIL_kh_1.5_FUNZ_freq_6000_FUNZ_I_eff_1000.mph
% Version:            COMSOL 6.0.0.318
% Date:               Feb 9 2022, 00:51
% Table:              Tabella 1 - GRIGLIA_T
% COIL_N                 COIL_kr                  COIL_kh                  FUNZ_freq                FUNZ_I_eff               Time (s)                 Temperatura (degC), Point: (0, 0)Temperatura (degC), Point: (15, 0)Temperatura (degC), Point: (27.483, 0)Temperatura (degC), Point: (28.742, 0)Temperatura (degC), Point: (29.497, 0)Temperatura (degC), Point: (29.99, 0)Temperatura (degC), Point: (0, 62.5)Temperatura (degC), Point: (15, 62.5)Temperatura (degC), Point: (27.483, 62.5)Temperatura (degC), Point: (28.742, 62.5)Temperatura (degC), Point: (29.497, 62.5)Temperatura (degC), Point: (29.99, 62.5)Temperatura (degC), Point: (0, 125)Temperatura (degC), Point: (15, 125)Temperatura (degC), Point: (27.483, 125)Temperatura (degC), Point: (28.742, 125)Temperatura (degC), Point: (29.497, 125)Temperatura (degC), Point: (29.99, 125)Temperatura (degC), Point: (0, 187.5)Temperatura (degC), Point: (15, 187.5)Temperatura (degC), Point: (27.483, 187.5)Temperatura (degC), Point: (28.742, 187.5)Temperatura (degC), Point: (29.497, 187.5)Temperatura (degC), Point: (29.99, 187.5)Temperatura (degC), Point: (0, 250)Temperatura (degC), Point: (15, 250)Temperatura (degC), Point: (27.483, 250)Temperatura (degC), Point: (28.742, 250)Temperatura (degC), Point: (29.497, 250)Temperatura (degC), Point: (29.99, 250)Temperatura (degC), Point: (0, 312.5)Temperatura (degC), Point: (15, 312.5)Temperatura (degC), Point: (27.483, 312.5)Temperatura (degC), Point: (28.742, 312.5)Temperatura (degC), Point: (29.497, 312.5)Temperatura (degC), Point: (29.99, 312.5)Temperatura (degC), Point: (0, 375)Temperatura (degC), Point: (15, 375)Temperatura (degC), Point: (27.483, 375)Temperatura (degC), Point: (28.742, 375)Temperatura (degC), Point: (29.497, 375)Temperatura (degC), Point: (29.99, 375)Temperatura (degC), Point: (0, 437.5)Temperatura (degC), Point: (15, 437.5)Temperatura (degC), Point: (27.483, 437.5)Temperatura (degC), Point: (28.742, 437.5)Temperatura (degC), Point: (29.497, 437.5)Temperatura (degC), Point: (29.99, 437.5)Temperatura (degC), Point: (0, 468.75)Temperatura (degC), Point: (15, 468.75)Temperatura (degC), Point: (27.483, 468.75)Temperatura (degC), Point: (28.742, 468.75)Temperatura (degC), Point: (29.497, 468.75)Temperatura (degC), Point: (29.99, 468.75)Temperatura (degC), Point: (0, 492.19)Temperatura (degC), Point: (15, 492.19)Temperatura (degC), Point: (27.483, 492.19)Temperatura (degC), Point: (28.742, 492.19)Temperatura (degC), Point: (29.497, 492.19)Temperatura (degC), Point: (29.99, 492.19)
20.000                   1.5000                   1.5000                   6000.0                   1000.0                   0.0000                   20.000                   20.000                   20.000                   20.000                   20.006                   20.120                   20.000                   20.000                   20.000                   20.000                   20.007                   20.128                   20.000                   20.000                   20.000                   20.000                   20.008                   20.136                   20.000                   20.000                   20.000                   20.000                   20.007                   20.133                   20.000                   20.000                   20.000                   20.000                   20.006                   20.122                   20.000                   20.000                   20.000                   20.000                   20.006                   20.123                   20.000                   20.000                   20.000                   20.000                   20.007                   20.134                   20.000                   20.000                   20.000                   20.000                   20.008                   20.136                   20.000                   20.000                   20.000                   20.000                   20.006                   20.126                   20.000                   20.000                   20.000                   20.000                   20.005                   20.116
20.000                   1.5000                   1.5000                   6000.0                   1000.0                   5.0000                   22.305                   28.296                   58.680                   64.120                   67.619                   69.295                   22.340                   28.510                   60.405                   66.198                   69.926                   71.696                   22.372                   28.704                   61.921                   68.068                   72.043                   73.916                   22.337                   28.534                   60.934                   66.916                   70.784                   72.618                   22.282                   28.221                   58.530                   64.025                   67.561                   69.254                   22.302                   28.310                   59.039                   64.595                   68.164                   69.869                   22.351                   28.602                   61.284                   67.309                   71.200                   73.041                   22.372                   28.707                   61.899                   68.033                   71.997                   73.868                   22.260                   28.212                   59.020                   64.652                   68.288                   70.024                   22.377                   28.158                   55.689                   60.634                   63.831                   65.388
20.000                   1.5000                   1.5000                   6000.0                   1000.0                   10.000                   33.170                   46.398                   86.106                   91.936                   95.626                   97.349                   33.301                   46.831                   88.126                   94.321                   98.243                   100.06                   33.435                   47.327                   90.613                   97.211                   101.39                   103.31                   33.301                   46.971                   89.371                   95.811                   99.888                   101.77                   33.104                   46.322                   86.421                   92.379                   96.128                   97.874                   33.177                   46.475                   86.736                   92.710                   96.475                   98.228                   33.360                   47.112                   89.759                   96.237                   100.34                   102.22                   33.418                   47.291                   90.493                   97.079                   101.25                   103.16                   32.865                   45.995                   86.361                   92.428                   96.264                   98.048                   32.697                   45.016                   80.933                   86.203                   89.539                   91.125
20.000                   1.5000                   1.5000                   6000.0                   1000.0                   15.000                   49.680                   67.186                   112.09                   118.27                   122.13                   123.89                   49.895                   67.756                   114.32                   120.86                   124.96                   126.82                   50.128                   68.445                   117.11                   124.06                   128.43                   130.39                   49.918                   68.002                   115.79                   122.58                   126.84                   128.76                   49.594                   67.143                   112.51                   118.79                   122.72                   124.50                   49.698                   67.302                   112.77                   119.07                   123.01                   124.81                   50.012                   68.166                   116.15                   122.97                   127.25                   129.18                   50.067                   68.353                   116.92                   123.86                   128.21                   130.17                   48.916                   66.275                   111.79                   118.19                   122.19                   124.01                   48.154                   64.312                   104.66                   110.17                   113.62                   115.23
20.000                   1.5000                   1.5000                   6000.0                   1000.0                   20.000                   70.006                   89.688                   137.58                   144.07                   148.10                   149.91                   70.275                   90.329                   139.93                   146.78                   151.05                   152.96                   70.576                   91.115                   142.81                   150.07                   154.62                   156.62                   70.324                   90.640                   141.47                   148.57                   153.00                   154.97                   69.910                   89.664                   138.00                   144.58                   148.67                   150.50                   70.009                   89.790                   138.21                   144.82                   148.93                   150.77                   70.431                   90.802                   141.81                   148.93                   153.39                   155.37                   70.431                   90.935                   142.54                   149.78                   154.31                   156.32                   68.598                   88.085                   136.49                   143.17                   147.35                   149.21                   67.111                   85.165                   127.82                   133.53                   137.09                   138.73
20.000                   1.5000                   1.5000                   6000.0                   1000.0                   25.000                   91.728                   112.82                   163.06                   169.83                   174.02                   175.87                   92.036                   113.51                   165.49                   172.63                   177.07                   179.02                   92.386                   114.35                   168.43                   175.97                   180.70                   182.75                   92.108                   113.86                   167.07                   174.45                   179.06                   181.07                   91.623                   112.80                   163.46                   170.32                   174.58                   176.45                   91.698                   112.88                   163.62                   170.50                   174.78                   176.66                   92.219                   114.02                   167.39                   174.80                   179.43                   181.45                   92.134                   114.06                   168.04                   175.57                   180.28                   182.32                   89.595                   110.45                   161.09                   168.05                   172.39                   174.30                   87.360                   106.59                   150.93                   156.82                   160.49                   162.16
20.000                   1.5000                   1.5000                   6000.0                   1000.0                   30.000                   114.60                   136.58                   188.78                   195.83                   200.20                   202.09                   114.93                   137.29                   191.25                   198.67                   203.30                   205.28                   115.31                   138.16                   194.22                   202.06                   206.96                   209.05                   115.02                   137.66                   192.85                   200.51                   205.30                   207.35                   114.49                   136.55                   189.16                   196.29                   200.72                   202.64                   114.52                   136.57                   189.25                   196.41                   200.86                   202.79                   115.12                   137.80                   193.15                   200.85                   205.66                   207.72                   114.91                   137.72                   193.68                   201.49                   206.38                   208.47                   111.66                   133.34                   185.86                   193.09                   197.60                   199.55                   108.69                   128.60                   174.28                   180.35                   184.13                   185.82
20.000                   1.5000                   1.5000                   6000.0                   1000.0                   35.000                   137.92                   160.57                   214.59                   221.92                   226.46                   228.40                   138.26                   161.29                   217.09                   224.79                   229.59                   231.62                   138.65                   162.18                   220.08                   228.21                   233.29                   235.42                   138.36                   161.68                   218.70                   226.65                   231.61                   233.70                   137.78                   160.52                   214.94                   222.35                   226.96                   228.92                   137.77                   160.49                   214.97                   222.41                   227.04                   229.00                   138.45                   161.80                   218.98                   226.97                   231.96                   234.06                   138.10                   161.58                   219.37                   227.48                   232.55                   234.67                   134.13                   156.45                   210.70                   218.20                   222.88                   224.87                   130.43                   150.83                   197.72                   203.96                   207.86                   209.58
20.000                   1.5000                   1.5000                   6000.0                   1000.0                   40.000                   161.93                   185.24                   241.32                   248.97                   253.72                   255.71                   162.28                   185.96                   243.82                   251.86                   256.87                   258.94                   162.68                   186.85                   246.84                   255.31                   260.60                   262.78                   162.39                   186.35                   245.45                   253.74                   258.91                   261.04                   161.78                   185.17                   241.64                   249.38                   254.19                   256.20                   161.75                   185.12                   241.66                   249.43                   254.26                   256.28                   162.46                   186.45                   245.71                   254.03                   259.23                   261.38                   161.90                   186.03                   245.89                   254.33                   259.61                   261.78                   157.22                   180.13                   236.33                   244.14                   249.02                   251.06                   152.83                   173.66                   221.85                   228.30                   232.33                   234.07
20.000                   1.5000                   1.5000                   6000.0                   1000.0                   45.000                   186.01                   209.96                   268.11                   276.09                   281.05                   283.09                   186.35                   210.68                   270.63                   279.00                   284.22                   286.34                   186.75                   211.57                   273.67                   282.48                   287.99                   290.21                   186.46                   211.08                   272.27                   280.89                   286.28                   288.46                   185.84                   209.87                   268.41                   276.48                   281.50                   283.55                   185.78                   209.80                   268.43                   276.53                   281.57                   283.63                   186.51                   211.15                   272.51                   281.17                   286.58                   288.77                   185.74                   210.51                   272.47                   281.26                   286.75                   288.96                   180.36                   203.86                   262.02                   270.15                   275.23                   277.30                   175.29                   196.54                   246.04                   252.70                   256.85                   258.62
20.000                   1.5000                   1.5000                   6000.0                   1000.0                   50.000                   210.08                   234.68                   294.90                   303.22                   308.38                   310.46                   210.42                   235.40                   297.43                   306.14                   311.57                   313.73                   210.82                   236.29                   300.50                   309.66                   315.38                   317.64                   210.54                   235.80                   299.08                   308.05                   313.65                   315.88                   209.89                   234.57                   295.18                   303.58                   308.81                   310.91                   209.81                   234.48                   295.19                   303.63                   308.88                   310.98                   210.57                   235.85                   299.30                   308.31                   313.93                   316.17                   209.59                   235.00                   299.06                   308.18                   313.88                   316.14                   203.50                   227.60                   287.71                   296.16                   301.43                   303.55                   197.74                   219.41                   270.23                   277.09                   281.38                   283.17
20.000                   1.5000                   1.5000                   6000.0                   1000.0                   55.000                   234.23                   259.54                   321.99                   330.67                   336.06                   338.18                   234.57                   260.26                   324.54                   333.61                   339.26                   341.47                   234.97                   261.15                   327.63                   337.16                   343.10                   345.41                   234.70                   260.66                   326.21                   335.54                   341.37                   343.63                   234.03                   259.41                   322.25                   331.01                   336.46                   338.60                   233.93                   259.31                   322.27                   331.07                   336.54                   338.69                   234.70                   260.70                   326.41                   335.78                   341.63                   343.91                   233.50                   259.62                   325.94                   335.43                   341.35                   343.65                   226.72                   251.47                   313.70                   322.50                   327.99                   330.16                   220.28                   242.41                   294.65                   301.73                   306.15                   307.98
20.000                   1.5000                   1.5000                   6000.0                   1000.0                   60.000                   258.54                   284.68                   349.68                   358.75                   364.39                   366.56                   258.89                   285.40                   352.25                   361.72                   367.62                   369.88                   259.28                   286.28                   355.36                   365.30                   371.49                   373.84                   259.01                   285.80                   353.93                   363.68                   369.75                   372.06                   258.32                   284.52                   349.90                   359.07                   364.76                   366.95                   258.23                   284.44                   349.98                   359.18                   364.90                   367.10                   259.00                   285.81                   354.12                   363.90                   370.00                   372.32                   257.55                   284.49                   353.40                   363.30                   369.48                   371.82                   250.08                   275.61                   340.31                   349.50                   355.23                   357.45                   242.97                   265.66                   319.51                   326.84                   331.41                   333.26
20.000                   1.5000                   1.5000                   6000.0                   1000.0                   65.000                   282.86                   309.82                   377.37                   386.84                   392.72                   394.94                   283.20                   310.53                   379.95                   389.84                   395.98                   398.29                   283.59                   311.41                   383.09                   393.44                   399.89                   402.28                   283.32                   310.93                   381.65                   391.81                   398.13                   400.48                   282.60                   309.62                   377.56                   387.13                   393.06                   395.30                   282.52                   309.57                   377.68                   387.29                   393.26                   395.50                   283.29                   310.93                   381.83                   392.02                   398.37                   400.73                   281.60                   309.36                   380.86                   391.18                   397.60                   399.99                   273.45                   299.75                   366.91                   376.50                   382.47                   384.74                   265.66                   288.91                   344.37                   351.95                   356.67                   358.55
20.000                   1.5000                   1.5000                   6000.0                   1000.0                   70.000                   307.17                   334.95                   405.06                   414.93                   421.06                   423.33                   307.51                   335.67                   407.66                   417.95                   424.35                   426.70                   307.90                   336.55                   410.82                   421.58                   428.28                   430.71                   307.63                   336.06                   409.37                   419.94                   426.51                   428.91                   306.89                   334.73                   405.22                   415.18                   421.37                   423.65                   306.82                   334.70                   405.39                   415.40                   421.62                   423.91                   307.58                   336.05                   409.54                   420.14                   426.74                   429.15                   305.64                   334.24                   408.32                   419.05                   425.72                   428.16                   296.82                   323.89                   393.52                   403.51                   409.72                   412.03                   288.36                   312.16                   369.23                   377.06                   381.93                   383.84
20.000                   1.5000                   1.5000                   6000.0                   1000.0                   75.000                   331.03                   359.75                   432.64                   442.96                   449.32                   451.62                   331.37                   360.47                   435.30                   446.04                   452.68                   455.06                   331.77                   361.37                   438.53                   449.75                   456.70                   459.16                   331.49                   360.88                   437.05                   448.07                   454.90                   457.33                   330.75                   359.53                   432.82                   443.23                   449.66                   451.97                   330.69                   359.51                   433.01                   443.47                   449.92                   452.25                   331.43                   360.85                   437.21                   448.27                   455.12                   457.56                   329.26                   358.81                   435.78                   446.96                   453.89                   456.35                   319.82                   347.77                   420.07                   430.49                   436.94                   439.29                   310.72                   335.16                   393.96                   402.05                   407.08                   409.01