% Model:              batchmodel_COIL_N_20_COIL_kr_3_COIL_kh_1.5_FUNZ_freq_10000_FUNZ_I_eff_1000.mph
% Version:            COMSOL 6.0.0.318
% Date:               Feb 9 2022, 03:35
% Table:              Tabella 1 - GRIGLIA_T
% COIL_N                 COIL_kr                  COIL_kh                  FUNZ_freq                FUNZ_I_eff               Time (s)                 Temperatura (degC), Point: (0, 0)Temperatura (degC), Point: (15, 0)Temperatura (degC), Point: (28.051, 0)Temperatura (degC), Point: (29.025, 0)Temperatura (degC), Point: (29.61, 0)Temperatura (degC), Point: (29.99, 0)Temperatura (degC), Point: (0, 62.5)Temperatura (degC), Point: (15, 62.5)Temperatura (degC), Point: (28.051, 62.5)Temperatura (degC), Point: (29.025, 62.5)Temperatura (degC), Point: (29.61, 62.5)Temperatura (degC), Point: (29.99, 62.5)Temperatura (degC), Point: (0, 125)Temperatura (degC), Point: (15, 125)Temperatura (degC), Point: (28.051, 125)Temperatura (degC), Point: (29.025, 125)Temperatura (degC), Point: (29.61, 125)Temperatura (degC), Point: (29.99, 125)Temperatura (degC), Point: (0, 187.5)Temperatura (degC), Point: (15, 187.5)Temperatura (degC), Point: (28.051, 187.5)Temperatura (degC), Point: (29.025, 187.5)Temperatura (degC), Point: (29.61, 187.5)Temperatura (degC), Point: (29.99, 187.5)Temperatura (degC), Point: (0, 250)Temperatura (degC), Point: (15, 250)Temperatura (degC), Point: (28.051, 250)Temperatura (degC), Point: (29.025, 250)Temperatura (degC), Point: (29.61, 250)Temperatura (degC), Point: (29.99, 250)Temperatura (degC), Point: (0, 312.5)Temperatura (degC), Point: (15, 312.5)Temperatura (degC), Point: (28.051, 312.5)Temperatura (degC), Point: (29.025, 312.5)Temperatura (degC), Point: (29.61, 312.5)Temperatura (degC), Point: (29.99, 312.5)Temperatura (degC), Point: (0, 375)Temperatura (degC), Point: (15, 375)Temperatura (degC), Point: (28.051, 375)Temperatura (degC), Point: (29.025, 375)Temperatura (degC), Point: (29.61, 375)Temperatura (degC), Point: (29.99, 375)Temperatura (degC), Point: (0, 437.5)Temperatura (degC), Point: (15, 437.5)Temperatura (degC), Point: (28.051, 437.5)Temperatura (degC), Point: (29.025, 437.5)Temperatura (degC), Point: (29.61, 437.5)Temperatura (degC), Point: (29.99, 437.5)Temperatura (degC), Point: (0, 468.75)Temperatura (degC), Point: (15, 468.75)Temperatura (degC), Point: (28.051, 468.75)Temperatura (degC), Point: (29.025, 468.75)Temperatura (degC), Point: (29.61, 468.75)Temperatura (degC), Point: (29.99, 468.75)Temperatura (degC), Point: (0, 492.19)Temperatura (degC), Point: (15, 492.19)Temperatura (degC), Point: (28.051, 492.19)Temperatura (degC), Point: (29.025, 492.19)Temperatura (degC), Point: (29.61, 492.19)Temperatura (degC), Point: (29.99, 492.19)
20.000                   3.0000                   1.5000                   10000                    1000.0                   0.0000                   20.000                   20.000                   20.000                   20.000                   20.013                   20.186                   20.000                   20.000                   20.000                   20.000                   20.013                   20.186                   20.000                   20.000                   20.000                   20.000                   20.013                   20.186                   20.000                   20.000                   20.000                   20.000                   20.013                   20.186                   20.000                   20.000                   20.000                   20.000                   20.013                   20.186                   20.000                   20.000                   20.000                   20.000                   20.013                   20.186                   20.000                   20.000                   20.000                   20.000                   20.013                   20.186                   20.000                   20.000                   20.000                   20.000                   20.012                   20.183                   20.000                   20.000                   20.000                   20.000                   20.011                   20.173                   20.000                   20.000                   20.000                   20.000                   20.007                   20.140
20.000                   3.0000                   1.5000                   10000                    1000.0                   5.0000                   22.387                   29.861                   72.794                   78.572                   82.166                   83.844                   22.376                   29.881                   72.766                   78.498                   82.108                   83.809                   22.378                   29.887                   72.750                   78.472                   82.072                   83.769                   22.377                   29.883                   72.741                   78.461                   82.064                   83.763                   22.373                   29.864                   72.692                   78.424                   82.022                   83.705                   22.372                   29.856                   72.672                   78.404                   81.997                   83.677                   22.468                   30.257                   75.094                   81.492                   85.365                   86.945                   22.471                   30.344                   76.346                   82.648                   86.285                   87.970                   22.342                   29.863                   77.316                   84.073                   87.108                   88.229                   23.108                   31.530                   77.835                   84.572                   87.733                   88.904
20.000                   3.0000                   1.5000                   10000                    1000.0                   10.000                   36.188                   53.121                   110.37                   116.89                   120.90                   122.75                   36.155                   53.063                   110.07                   116.55                   120.52                   122.34                   36.154                   53.051                   109.82                   116.24                   120.21                   122.03                   36.154                   53.057                   109.95                   116.39                   120.34                   122.15                   36.158                   53.082                   110.16                   116.63                   120.62                   122.44                   36.184                   53.159                   110.62                   117.14                   121.14                   122.96                   36.447                   53.422                   109.28                   115.75                   119.61                   120.92                   37.443                   56.047                   119.45                   126.43                   130.51                   132.44                   37.601                   56.445                   124.58                   132.19                   135.93                   137.62                   40.171                   61.074                   130.78                   138.78                   142.68                   144.19
20.000                   3.0000                   1.5000                   10000                    1000.0                   15.000                   58.934                   81.432                   147.30                   154.52                   158.90                   160.86                   58.886                   81.370                   147.48                   154.74                   159.17                   161.15                   58.905                   81.398                   147.23                   154.39                   158.75                   160.73                   58.886                   81.370                   147.35                   154.56                   158.95                   160.93                   58.893                   81.369                   147.03                   154.12                   158.45                   160.42                   58.938                   81.471                   147.37                   154.48                   158.81                   160.77                   58.630                   80.402                   142.80                   149.81                   154.17                   155.59                   62.323                   87.215                   159.94                   167.51                   171.91                   173.92                   63.598                   89.062                   166.42                   174.26                   178.34                   180.30                   67.897                   95.599                   172.77                   180.73                   184.85                   186.33
20.000                   3.0000                   1.5000                   10000                    1000.0                   20.000                   85.501                   110.99                   180.84                   188.25                   192.77                   194.74                   85.445                   110.93                   181.12                   188.59                   193.16                   195.17                   85.487                   111.00                   181.03                   188.42                   192.94                   194.94                   85.445                   110.94                   181.06                   188.49                   193.04                   195.04                   85.457                   110.92                   180.61                   187.92                   192.39                   194.37                   85.493                   110.99                   180.76                   188.07                   192.53                   194.51                   84.431                   108.83                   175.21                   182.41                   186.91                   188.58                   90.739                   118.45                   193.20                   200.78                   205.28                   207.25                   92.842                   120.77                   196.66                   204.06                   208.22                   210.15                   97.287                   126.14                   196.42                   202.93                   206.54                   207.90
20.000                   3.0000                   1.5000                   10000                    1000.0                   25.000                   114.03                   140.80                   211.86                   219.20                   223.73                   225.66                   113.97                   140.75                   211.85                   219.18                   223.71                   225.63                   114.03                   140.84                   211.99                   219.33                   223.86                   225.79                   113.97                   140.75                   211.90                   219.25                   223.78                   225.70                   113.99                   140.74                   211.69                   219.00                   223.50                   225.42                   113.99                   140.76                   211.79                   219.11                   223.63                   225.55                   112.31                   138.19                   207.59                   214.83                   219.28                   221.23                   120.34                   148.42                   220.60                   227.80                   232.22                   234.11                   122.56                   150.01                   218.61                   225.28                   229.32                   231.03                   125.58                   151.84                   208.58                   213.25                   216.04                   217.27
20.000                   3.0000                   1.5000                   10000                    1000.0                   30.000                   142.92                   170.70                   244.44                   252.18                   256.94                   258.91                   142.87                   170.66                   244.42                   252.13                   256.87                   258.82                   142.94                   170.77                   244.68                   252.41                   257.16                   259.12                   142.87                   170.68                   244.57                   252.32                   257.07                   259.03                   142.88                   170.63                   244.06                   251.68                   256.34                   258.29                   142.83                   170.62                   244.43                   252.14                   256.86                   258.81                   140.91                   168.22                   241.70                   249.26                   253.78                   255.87                   149.22                   177.16                   248.40                   255.55                   259.90                   261.71                   150.80                   177.56                   245.59                   252.39                   256.28                   257.83                   151.96                   176.27                   229.31                   233.77                   236.26                   237.31
20.000                   3.0000                   1.5000                   10000                    1000.0                   35.000                   172.07                   200.81                   277.87                   286.04                   291.08                   293.12                   172.03                   200.81                   278.04                   286.23                   291.23                   293.25                   172.12                   200.95                   278.38                   286.58                   291.61                   293.63                   172.03                   200.83                   278.12                   286.33                   291.35                   293.37                   172.02                   200.74                   277.51                   285.55                   290.42                   292.44                   171.93                   200.72                   278.08                   286.26                   291.22                   293.24                   170.09                   198.79                   276.73                   284.75                   289.44                   291.59                   177.54                   205.56                   277.96                   285.27                   289.64                   291.41                   178.06                   204.77                   276.59                   283.91                   287.83                   289.31                   177.50                   201.27                   256.01                   260.75                   263.12                   264.08
20.000                   3.0000                   1.5000                   10000                    1000.0                   40.000                   201.53                   231.46                   312.56                   321.21                   326.55                   328.66                   201.50                   231.46                   312.66                   321.32                   326.64                   328.73                   201.59                   231.59                   312.94                   321.62                   326.95                   329.06                   201.50                   231.47                   312.72                   321.39                   326.72                   328.82                   201.47                   231.39                   312.32                   320.90                   326.14                   328.24                   201.35                   231.30                   312.57                   321.23                   326.53                   328.63                   199.71                   229.62                   311.17                   319.73                   324.87                   327.04                   205.47                   234.48                   311.50                   319.54                   324.42                   326.36                   203.70                   230.73                   303.39                   310.91                   315.25                   316.94                   200.76                   224.02                   278.28                   283.19                   285.94                   287.09
20.000                   3.0000                   1.5000                   10000                    1000.0                   45.000                   230.99                   262.11                   347.24                   356.38                   362.02                   364.20                   230.96                   262.11                   347.28                   356.41                   362.04                   364.22                   231.05                   262.23                   347.50                   356.66                   362.30                   364.48                   230.96                   262.11                   347.31                   356.46                   362.09                   364.27                   230.93                   262.04                   347.13                   356.25                   361.87                   364.05                   230.76                   261.89                   347.07                   356.21                   361.83                   364.01                   229.33                   260.45                   345.61                   354.71                   360.29                   362.48                   233.40                   263.40                   345.05                   353.81                   359.21                   361.31                   229.35                   256.69                   330.18                   337.92                   342.68                   344.57                   224.02                   246.78                   300.55                   305.64                   308.76                   310.09
20.000                   3.0000                   1.5000                   10000                    1000.0                   50.000                   260.80                   293.40                   383.67                   393.43                   399.41                   401.68                   260.75                   293.34                   383.43                   393.16                   399.15                   401.41                   260.83                   293.43                   383.50                   393.23                   399.22                   401.47                   260.76                   293.37                   383.50                   393.23                   399.21                   401.48                   260.73                   293.34                   383.61                   393.40                   399.42                   401.69                   260.55                   293.14                   383.27                   393.01                   399.00                   401.26                   259.32                   291.97                   382.42                   392.29                   398.41                   400.66                   261.84                   293.31                   380.52                   390.00                   395.83                   398.06                   255.38                   283.73                   361.31                   369.66                   374.84                   376.88                   247.93                   271.19                   327.67                   333.31                   336.84                   338.33
20.000                   3.0000                   1.5000                   10000                    1000.0                   55.000                   290.69                   324.83                   420.46                   430.87                   437.22                   439.56                   290.61                   324.71                   419.90                   430.26                   436.61                   438.96                   290.66                   324.74                   419.81                   430.13                   436.46                   438.78                   290.63                   324.76                   420.02                   430.37                   436.71                   439.05                   290.62                   324.76                   420.44                   430.93                   437.36                   439.72                   290.41                   324.53                   419.83                   430.19                   436.55                   438.89                   289.40                   323.64                   419.73                   430.42                   437.11                   439.42                   290.38                   323.42                   416.41                   426.59                   432.85                   435.19                   281.49                   310.99                   393.36                   402.39                   408.00                   410.19                   271.99                   295.95                   355.81                   362.08                   366.04                   367.67
20.000                   3.0000                   1.5000                   10000                    1000.0                   60.000                   320.69                   356.48                   457.71                   468.81                   475.54                   477.95                   320.57                   356.27                   456.76                   467.78                   474.50                   476.93                   320.60                   356.26                   456.49                   467.43                   474.10                   476.47                   320.64                   356.39                   457.07                   468.09                   474.80                   477.21                   320.62                   356.40                   457.56                   468.72                   475.57                   478.01                   320.43                   356.21                   457.08                   468.11                   474.86                   477.29                   319.29                   354.99                   455.83                   467.17                   474.30                   476.65                   318.77                   353.26                   450.61                   461.26                   467.74                   470.12                   307.56                   338.27                   425.03                   434.55                   440.37                   442.63                   296.33                   321.25                   384.23                   390.88                   395.03                   396.69
20.000                   3.0000                   1.5000                   10000                    1000.0                   65.000                   350.78                   388.27                   495.26                   507.09                   514.20                   516.68                   350.61                   387.96                   493.89                   505.57                   512.69                   515.18                   350.61                   387.90                   493.42                   505.01                   511.99                   514.39                   350.74                   388.18                   494.46                   506.19                   513.29                   515.76                   350.71                   388.17                   494.86                   506.71                   513.95                   516.48                   350.56                   388.09                   494.78                   506.54                   513.69                   516.19                   349.07                   386.14                   491.11                   503.00                   510.48                   512.85                   347.07                   382.90                   483.69                   494.62                   501.20                   503.57                   333.59                   365.56                   456.45                   466.32                   472.22                   474.47                   320.88                   346.94                   412.85                   419.69                   423.87                   425.49
20.000                   3.0000                   1.5000                   10000                    1000.0                   70.000                   380.40                   419.52                   531.93                   544.46                   551.96                   554.49                   380.19                   419.16                   530.30                   542.65                   550.15                   552.71                   380.15                   419.02                   529.61                   541.84                   549.14                   551.58                   380.39                   419.48                   531.14                   543.58                   551.08                   553.60                   380.32                   419.40                   531.34                   543.86                   551.49                   554.09                   380.25                   419.46                   531.71                   544.17                   551.71                   554.29                   378.25                   416.66                   525.73                   538.16                   546.00                   548.39                   374.69                   411.74                   515.61                   526.80                   533.46                   535.82                   359.14                   392.24                   486.79                   496.99                   503.00                   505.26                   345.13                   372.20                   440.69                   447.71                   451.91                   453.50
20.000                   3.0000                   1.5000                   10000                    1000.0                   75.000                   409.20                   449.85                   567.07                   580.27                   588.17                   590.74                   409.01                   449.50                   565.50                   578.51                   586.40                   589.02                   408.89                   449.25                   564.54                   577.40                   585.03                   587.50                   409.29                   449.93                   566.60                   579.75                   587.65                   590.22                   409.14                   449.73                   566.42                   579.57                   587.57                   590.23                   409.17                   449.96                   567.30                   580.44                   588.37                   591.00                   406.41                   446.10                   559.21                   572.19                   580.38                   582.81                   401.15                   439.20                   545.56                   556.96                   563.69                   566.04                   383.86                   417.88                   515.27                   525.78                   531.96                   534.26                   368.87                   396.76                   467.22                   474.37                   478.60                   480.15