% Model:              batchmodel_COIL_N_20_COIL_kr_2.25_COIL_kh_2_FUNZ_freq_2000_FUNZ_I_eff_1000.mph
% Version:            COMSOL 6.0.0.318
% Date:               Feb 9 2022, 02:15
% Table:              Tabella 1 - GRIGLIA_T
% COIL_N                 COIL_kr                  COIL_kh                  FUNZ_freq                FUNZ_I_eff               Time (s)                 Temperatura (degC), Point: (0, 0)Temperatura (degC), Point: (15, 0)Temperatura (degC), Point: (25.641, 0)Temperatura (degC), Point: (27.821, 0)Temperatura (degC), Point: (29.128, 0)Temperatura (degC), Point: (29.99, 0)Temperatura (degC), Point: (0, 62.5)Temperatura (degC), Point: (15, 62.5)Temperatura (degC), Point: (25.641, 62.5)Temperatura (degC), Point: (27.821, 62.5)Temperatura (degC), Point: (29.128, 62.5)Temperatura (degC), Point: (29.99, 62.5)Temperatura (degC), Point: (0, 125)Temperatura (degC), Point: (15, 125)Temperatura (degC), Point: (25.641, 125)Temperatura (degC), Point: (27.821, 125)Temperatura (degC), Point: (29.128, 125)Temperatura (degC), Point: (29.99, 125)Temperatura (degC), Point: (0, 187.5)Temperatura (degC), Point: (15, 187.5)Temperatura (degC), Point: (25.641, 187.5)Temperatura (degC), Point: (27.821, 187.5)Temperatura (degC), Point: (29.128, 187.5)Temperatura (degC), Point: (29.99, 187.5)Temperatura (degC), Point: (0, 250)Temperatura (degC), Point: (15, 250)Temperatura (degC), Point: (25.641, 250)Temperatura (degC), Point: (27.821, 250)Temperatura (degC), Point: (29.128, 250)Temperatura (degC), Point: (29.99, 250)Temperatura (degC), Point: (0, 312.5)Temperatura (degC), Point: (15, 312.5)Temperatura (degC), Point: (25.641, 312.5)Temperatura (degC), Point: (27.821, 312.5)Temperatura (degC), Point: (29.128, 312.5)Temperatura (degC), Point: (29.99, 312.5)Temperatura (degC), Point: (0, 375)Temperatura (degC), Point: (15, 375)Temperatura (degC), Point: (25.641, 375)Temperatura (degC), Point: (27.821, 375)Temperatura (degC), Point: (29.128, 375)Temperatura (degC), Point: (29.99, 375)Temperatura (degC), Point: (0, 437.5)Temperatura (degC), Point: (15, 437.5)Temperatura (degC), Point: (25.641, 437.5)Temperatura (degC), Point: (27.821, 437.5)Temperatura (degC), Point: (29.128, 437.5)Temperatura (degC), Point: (29.99, 437.5)Temperatura (degC), Point: (0, 468.75)Temperatura (degC), Point: (15, 468.75)Temperatura (degC), Point: (25.641, 468.75)Temperatura (degC), Point: (27.821, 468.75)Temperatura (degC), Point: (29.128, 468.75)Temperatura (degC), Point: (29.99, 468.75)Temperatura (degC), Point: (0, 492.19)Temperatura (degC), Point: (15, 492.19)Temperatura (degC), Point: (25.641, 492.19)Temperatura (degC), Point: (27.821, 492.19)Temperatura (degC), Point: (29.128, 492.19)Temperatura (degC), Point: (29.99, 492.19)
20.000                   2.2500                   2.0000                   2000.0                   1000.0                   0.0000                   20.000                   20.000                   20.000                   20.000                   20.001                   20.047                   20.000                   20.000                   20.000                   20.000                   20.001                   20.047                   20.000                   20.000                   20.000                   20.000                   20.001                   20.047                   20.000                   20.000                   20.000                   20.000                   20.001                   20.047                   20.000                   20.000                   20.000                   20.000                   20.001                   20.047                   20.000                   20.000                   20.000                   20.000                   20.001                   20.047                   20.000                   20.000                   20.000                   20.000                   20.001                   20.047                   20.000                   20.000                   20.000                   20.000                   20.001                   20.047                   20.000                   20.000                   20.000                   20.000                   20.001                   20.043                   20.000                   20.000                   20.000                   20.000                   20.000                   20.028
20.000                   2.2500                   2.0000                   2000.0                   1000.0                   5.0000                   21.164                   24.545                   37.796                   42.567                   45.835                   47.467                   21.162                   24.532                   37.761                   42.530                   45.804                   47.441                   21.159                   24.513                   37.708                   42.505                   45.795                   47.435                   21.162                   24.530                   37.752                   42.525                   45.803                   47.442                   21.167                   24.556                   37.829                   42.600                   45.866                   47.498                   21.163                   24.539                   37.779                   42.550                   45.824                   47.461                   21.142                   24.452                   37.551                   42.344                   45.637                   47.278                   21.150                   24.500                   37.644                   42.368                   45.611                   47.233                   21.014                   23.998                   35.704                   39.894                   42.770                   44.232                   20.806                   22.829                   29.914                   32.319                   33.935                   34.810
20.000                   2.2500                   2.0000                   2000.0                   1000.0                   10.000                   27.180                   34.225                   52.055                   57.328                   60.777                   62.447                   27.178                   34.217                   52.049                   57.327                   60.780                   62.454                   27.177                   34.210                   52.079                   57.393                   60.865                   62.543                   27.182                   34.221                   52.065                   57.352                   60.811                   62.486                   27.191                   34.244                   52.080                   57.350                   60.796                   62.466                   27.180                   34.222                   52.054                   57.331                   60.783                   62.456                   27.125                   34.115                   51.956                   57.282                   60.762                   62.442                   27.028                   33.980                   51.595                   56.807                   60.219                   61.875                   26.072                   32.148                   47.603                   52.189                   55.203                   56.694                   24.743                   28.872                   38.429                   41.079                   42.774                   43.664
20.000                   2.2500                   2.0000                   2000.0                   1000.0                   15.000                   35.467                   45.036                   65.426                   71.004                   74.573                   76.268                   35.469                   45.038                   65.445                   71.030                   74.603                   76.299                   35.472                   45.044                   65.505                   71.113                   74.697                   76.397                   35.476                   45.048                   65.471                   71.063                   74.639                   76.336                   35.484                   45.060                   65.449                   71.024                   74.592                   76.286                   35.469                   45.039                   65.440                   71.022                   74.593                   76.289                   35.392                   44.937                   65.410                   71.030                   74.620                   76.321                   35.079                   44.500                   64.603                   70.112                   73.638                   75.317                   32.953                   41.112                   58.627                   63.463                   66.576                   68.088                   30.215                   35.800                   46.747                   49.546                   51.295                   52.194
20.000                   2.2500                   2.0000                   2000.0                   1000.0                   20.000                   46.091                   56.832                   78.095                   83.801                   87.434                   89.141                   46.097                   56.843                   78.126                   83.838                   87.475                   89.183                   46.106                   56.859                   78.182                   83.905                   87.547                   89.258                   46.108                   56.857                   78.152                   83.868                   87.506                   89.215                   46.112                   56.857                   78.118                   83.823                   87.456                   89.163                   46.095                   56.839                   78.115                   83.825                   87.461                   89.169                   46.012                   56.756                   78.101                   83.831                   87.476                   89.187                   45.317                   55.869                   76.802                   82.432                   86.021                   87.711                   41.672                   50.755                   68.929                   73.870                   77.037                   78.559                   37.373                   43.637                   55.053                   57.910                   59.684                   60.588
20.000                   2.2500                   2.0000                   2000.0                   1000.0                   25.000                   57.728                   69.034                   90.751                   96.554                   100.25                   101.97                   57.737                   69.049                   90.786                   96.595                   100.29                   102.01                   57.750                   69.071                   90.837                   96.651                   100.35                   102.07                   57.750                   69.065                   90.811                   96.622                   100.32                   102.04                   57.752                   69.059                   90.774                   96.577                   100.27                   101.99                   57.733                   69.044                   90.773                   96.581                   100.28                   102.00                   57.645                   68.966                   90.755                   96.573                   100.27                   102.00                   56.396                   67.484                   88.832                   94.551                   98.195                   99.897                   51.164                   60.673                   79.167                   84.179                   87.389                   88.921                   45.470                   52.053                   63.683                   66.575                   68.366                   69.274
20.000                   2.2500                   2.0000                   2000.0                   1000.0                   30.000                   69.719                   81.378                   103.40                   109.29                   113.05                   114.78                   69.731                   81.397                   103.44                   109.34                   113.09                   114.83                   69.746                   81.421                   103.48                   109.38                   113.14                   114.87                   69.745                   81.414                   103.46                   109.36                   113.12                   114.85                   69.743                   81.402                   103.43                   109.32                   113.07                   114.80                   69.725                   81.389                   103.42                   109.32                   113.08                   114.81                   69.631                   81.313                   103.40                   109.29                   113.05                   114.79                   67.769                   79.185                   100.80                   106.60                   110.30                   112.01                   60.924                   70.688                   89.384                   94.454                   97.703                   99.245                   53.894                   60.670                   72.427                   75.344                   77.151                   78.062
20.000                   2.2500                   2.0000                   2000.0                   1000.0                   35.000                   81.783                   93.756                   116.08                   122.06                   125.87                   127.62                   81.797                   93.778                   116.12                   122.10                   125.92                   127.67                   81.815                   93.805                   116.16                   122.14                   125.95                   127.70                   81.813                   93.796                   116.14                   122.12                   125.94                   127.69                   81.808                   93.781                   116.10                   122.08                   125.90                   127.64                   81.790                   93.768                   116.10                   122.08                   125.90                   127.65                   81.689                   93.692                   116.06                   122.04                   125.86                   127.61                   79.193                   90.898                   112.78                   118.65                   122.40                   124.13                   70.746                   80.731                   99.619                   104.75                   108.04                   109.59                   62.415                   69.358                   81.231                   84.172                   85.995                   86.908
20.000                   2.2500                   2.0000                   2000.0                   1000.0                   40.000                   94.382                   106.39                   128.94                   135.01                   138.90                   140.66                   94.396                   106.41                   128.98                   135.06                   138.94                   140.71                   94.415                   106.43                   129.01                   135.09                   138.98                   140.74                   94.412                   106.43                   129.00                   135.08                   138.96                   140.73                   94.406                   106.41                   128.96                   135.04                   138.92                   140.68                   94.388                   106.40                   128.96                   135.04                   138.92                   140.69                   94.269                   106.30                   128.89                   134.97                   138.85                   140.62                   90.983                   102.70                   124.77                   130.73                   134.54                   136.28                   81.008                   90.981                   109.99                   115.18                   118.51                   120.07                   71.633                   78.564                   90.465                   93.426                   95.263                   96.180
20.000                   2.2500                   2.0000                   2000.0                   1000.0                   45.000                   106.98                   119.02                   141.80                   147.97                   151.92                   153.70                   107.00                   119.04                   141.84                   148.01                   151.96                   153.74                   107.01                   119.06                   141.87                   148.04                   152.00                   153.78                   107.01                   119.05                   141.86                   148.03                   151.98                   153.77                   107.00                   119.04                   141.82                   148.00                   151.95                   153.73                   106.99                   119.03                   141.82                   148.00                   151.95                   153.73                   106.85                   118.91                   141.72                   147.90                   151.85                   153.63                   102.77                   114.50                   136.77                   142.81                   146.68                   148.44                   91.271                   101.23                   120.36                   125.60                   128.98                   130.55                   80.851                   87.769                   99.700                   102.68                   104.53                   105.45
20.000                   2.2500                   2.0000                   2000.0                   1000.0                   50.000                   119.69                   131.78                   154.85                   161.12                   165.14                   166.94                   119.70                   131.80                   154.88                   161.16                   165.18                   166.98                   119.72                   131.83                   154.91                   161.19                   165.22                   167.02                   119.72                   131.82                   154.90                   161.18                   165.20                   167.00                   119.71                   131.81                   154.87                   161.15                   165.17                   166.96                   119.69                   131.79                   154.87                   161.14                   165.17                   166.96                   119.51                   131.63                   154.72                   161.00                   165.02                   166.82                   114.58                   126.35                   148.86                   155.00                   158.93                   160.70                   101.65                   111.63                   130.92                   136.24                   139.66                   141.25                   90.324                   97.237                   109.22                   112.22                   114.09                   115.01
20.000                   2.2500                   2.0000                   2000.0                   1000.0                   55.000                   132.50                   144.69                   168.08                   174.47                   178.56                   180.37                   132.51                   144.71                   168.11                   174.50                   178.60                   180.41                   132.53                   144.73                   168.14                   174.54                   178.64                   180.45                   132.53                   144.72                   168.13                   174.52                   178.62                   180.43                   132.52                   144.71                   168.10                   174.49                   178.59                   180.40                   132.50                   144.69                   168.10                   174.49                   178.58                   180.39                   132.26                   144.47                   167.88                   174.27                   178.37                   180.18                   126.40                   138.25                   161.05                   167.29                   171.29                   173.08                   112.16                   122.18                   141.68                   147.07                   150.55                   152.15                   100.05                   106.97                   119.01                   122.04                   123.92                   124.85
20.000                   2.2500                   2.0000                   2000.0                   1000.0                   60.000                   145.31                   157.59                   181.32                   187.81                   191.98                   193.81                   145.32                   157.61                   181.35                   187.85                   192.02                   193.85                   145.34                   157.63                   181.38                   187.88                   192.06                   193.88                   145.34                   157.62                   181.36                   187.87                   192.04                   193.87                   145.33                   157.61                   181.34                   187.84                   192.00                   193.83                   145.31                   157.59                   181.33                   187.83                   192.00                   193.82                   145.01                   157.30                   181.04                   187.54                   191.71                   193.54                   138.23                   150.15                   173.25                   179.59                   183.66                   185.45                   122.66                   132.73                   152.45                   157.91                   161.44                   163.04                   109.78                   116.69                   128.81                   131.86                   133.76                   134.69
20.000                   2.2500                   2.0000                   2000.0                   1000.0                   65.000                   158.12                   170.49                   194.55                   201.16                   205.40                   207.24                   158.14                   170.51                   194.58                   201.19                   205.44                   207.28                   158.15                   170.53                   194.61                   201.23                   205.47                   207.32                   158.15                   170.53                   194.60                   201.21                   205.46                   207.30                   158.14                   170.51                   194.57                   201.18                   205.42                   207.26                   158.12                   170.49                   194.56                   201.17                   205.41                   207.25                   157.76                   170.14                   194.20                   200.82                   205.06                   206.91                   150.05                   162.05                   185.44                   191.88                   196.02                   197.83                   133.17                   143.27                   163.21                   168.75                   172.32                   173.94                   119.51                   126.42                   138.61                   141.68                   143.60                   144.54
20.000                   2.2500                   2.0000                   2000.0                   1000.0                   70.000                   170.93                   183.40                   207.79                   214.51                   218.82                   220.68                   170.95                   183.41                   207.81                   214.54                   218.85                   220.71                   170.96                   183.43                   207.84                   214.57                   218.89                   220.75                   170.96                   183.43                   207.83                   214.55                   218.87                   220.73                   170.95                   183.41                   207.80                   214.52                   218.84                   220.70                   170.93                   183.39                   207.79                   214.51                   218.83                   220.68                   170.51                   182.97                   207.37                   214.09                   218.41                   220.27                   161.87                   173.95                   197.64                   204.18                   208.38                   210.20                   143.67                   153.82                   173.97                   179.59                   183.21                   184.84                   129.23                   136.15                   148.41                   151.51                   153.44                   154.38
20.000                   2.2500                   2.0000                   2000.0                   1000.0                   75.000                   183.76                   196.36                   221.13                   227.97                   232.36                   234.23                   183.77                   196.37                   221.15                   228.00                   232.40                   234.27                   183.79                   196.39                   221.18                   228.03                   232.43                   234.31                   183.78                   196.39                   221.17                   228.02                   232.41                   234.29                   183.78                   196.37                   221.15                   227.99                   232.38                   234.25                   183.75                   196.35                   221.13                   227.97                   232.36                   234.24                   183.25                   195.85                   220.62                   227.46                   231.86                   233.73                   173.66                   185.85                   209.89                   216.53                   220.80                   222.64                   154.25                   164.48                   184.88                   190.57                   194.25                   195.89                   139.13                   146.07                   158.41                   161.54                   163.50                   164.44