% Model:              batchmodel_COIL_N_20_COIL_kr_1.5_COIL_kh_1.5_FUNZ_freq_10000_FUNZ_I_eff_4000.mph
% Version:            COMSOL 6.0.0.318
% Date:               Feb 9 2022, 01:17
% Table:              Tabella 1 - GRIGLIA_T
% COIL_N                 COIL_kr                  COIL_kh                  FUNZ_freq                FUNZ_I_eff               Time (s)                 Temperatura (degC), Point: (0, 0)Temperatura (degC), Point: (15, 0)Temperatura (degC), Point: (28.051, 0)Temperatura (degC), Point: (29.025, 0)Temperatura (degC), Point: (29.61, 0)Temperatura (degC), Point: (29.99, 0)Temperatura (degC), Point: (0, 62.5)Temperatura (degC), Point: (15, 62.5)Temperatura (degC), Point: (28.051, 62.5)Temperatura (degC), Point: (29.025, 62.5)Temperatura (degC), Point: (29.61, 62.5)Temperatura (degC), Point: (29.99, 62.5)Temperatura (degC), Point: (0, 125)Temperatura (degC), Point: (15, 125)Temperatura (degC), Point: (28.051, 125)Temperatura (degC), Point: (29.025, 125)Temperatura (degC), Point: (29.61, 125)Temperatura (degC), Point: (29.99, 125)Temperatura (degC), Point: (0, 187.5)Temperatura (degC), Point: (15, 187.5)Temperatura (degC), Point: (28.051, 187.5)Temperatura (degC), Point: (29.025, 187.5)Temperatura (degC), Point: (29.61, 187.5)Temperatura (degC), Point: (29.99, 187.5)Temperatura (degC), Point: (0, 250)Temperatura (degC), Point: (15, 250)Temperatura (degC), Point: (28.051, 250)Temperatura (degC), Point: (29.025, 250)Temperatura (degC), Point: (29.61, 250)Temperatura (degC), Point: (29.99, 250)Temperatura (degC), Point: (0, 312.5)Temperatura (degC), Point: (15, 312.5)Temperatura (degC), Point: (28.051, 312.5)Temperatura (degC), Point: (29.025, 312.5)Temperatura (degC), Point: (29.61, 312.5)Temperatura (degC), Point: (29.99, 312.5)Temperatura (degC), Point: (0, 375)Temperatura (degC), Point: (15, 375)Temperatura (degC), Point: (28.051, 375)Temperatura (degC), Point: (29.025, 375)Temperatura (degC), Point: (29.61, 375)Temperatura (degC), Point: (29.99, 375)Temperatura (degC), Point: (0, 437.5)Temperatura (degC), Point: (15, 437.5)Temperatura (degC), Point: (28.051, 437.5)Temperatura (degC), Point: (29.025, 437.5)Temperatura (degC), Point: (29.61, 437.5)Temperatura (degC), Point: (29.99, 437.5)Temperatura (degC), Point: (0, 468.75)Temperatura (degC), Point: (15, 468.75)Temperatura (degC), Point: (28.051, 468.75)Temperatura (degC), Point: (29.025, 468.75)Temperatura (degC), Point: (29.61, 468.75)Temperatura (degC), Point: (29.99, 468.75)Temperatura (degC), Point: (0, 492.19)Temperatura (degC), Point: (15, 492.19)Temperatura (degC), Point: (28.051, 492.19)Temperatura (degC), Point: (29.025, 492.19)Temperatura (degC), Point: (29.61, 492.19)Temperatura (degC), Point: (29.99, 492.19)
20.000                   1.5000                   1.5000                   10000                    4000.0                   0.0000                   20.000                   20.000                   20.000                   20.001                   20.304                   20.966                   20.000                   20.000                   20.000                   20.002                   20.356                   21.062                   20.000                   20.000                   20.000                   20.003                   20.408                   21.160                   20.000                   20.000                   20.000                   20.002                   20.388                   21.123                   20.000                   20.000                   20.000                   20.001                   20.317                   20.991                   20.000                   20.000                   20.000                   20.001                   20.322                   20.999                   20.000                   20.000                   20.000                   20.002                   20.392                   21.131                   20.000                   20.000                   20.000                   20.003                   20.407                   21.158                   20.000                   20.000                   20.000                   20.002                   20.341                   21.036                   20.000                   20.000                   20.000                   20.002                   20.387                   21.123
20.000                   1.5000                   1.5000                   10000                    4000.0                   5.0000                   39.255                   121.14                   690.88                   814.84                   881.83                   898.36                   39.495                   123.77                   725.82                   871.03                   943.66                   960.43                   40.162                   127.63                   791.54                   966.84                   1041.0                   1056.5                   39.959                   126.44                   762.54                   925.66                   999.70                   1016.0                   39.127                   121.69                   701.22                   830.50                   899.12                   915.77                   39.314                   122.54                   705.62                   837.65                   907.21                   923.88                   39.992                   126.64                   768.78                   935.64                   1010.1                   1026.2                   40.186                   127.65                   790.05                   965.53                   1039.6                   1055.1                   39.517                   123.25                   713.18                   851.21                   922.84                   939.72                   47.779                   139.66                   702.79                   824.96                   890.38                   906.27
20.000                   1.5000                   1.5000                   10000                    4000.0                   10.000                   157.55                   306.37                   889.85                   972.17                   1008.4                   1016.2                   159.45                   314.57                   977.82                   1055.3                   1080.5                   1084.3                   162.74                   331.90                   1214.2                   1250.9                   1258.6                   1257.9                   161.58                   324.24                   1143.9                   1195.2                   1207.1                   1207.4                   157.83                   308.23                   894.84                   973.28                   1007.6                   1015.0                   158.37                   309.26                   890.57                   966.60                   999.87                   1007.0                   161.76                   325.76                   1165.8                   1212.6                   1223.3                   1223.2                   162.85                   331.64                   1208.2                   1245.8                   1253.7                   1253.0                   159.48                   313.89                   964.76                   1038.9                   1063.5                   1067.4                   173.92                   328.77                   891.48                   958.65                   986.69                   992.56
20.000                   1.5000                   1.5000                   10000                    4000.0                   15.000                   296.13                   448.33                   920.67                   965.18                   985.38                   989.72                   301.03                   466.51                   1136.1                   1167.0                   1173.8                   1173.2                   308.44                   492.50                   1184.5                   1203.5                   1206.7                   1205.3                   305.55                   481.90                   1175.4                   1197.6                   1201.8                   1200.5                   297.25                   453.01                   996.57                   1046.1                   1062.2                   1064.2                   298.04                   454.70                   1021.0                   1068.7                   1083.1                   1084.6                   306.12                   484.22                   1178.7                   1200.0                   1203.9                   1202.6                   308.43                   491.97                   1185.7                   1204.8                   1208.1                   1206.7                   301.00                   465.63                   1113.5                   1147.4                   1155.2                   1154.9                   312.31                   473.83                   1071.5                   1111.1                   1121.4                   1121.7
20.000                   1.5000                   1.5000                   10000                    4000.0                   20.000                   411.92                   556.00                   1025.1                   1057.8                   1067.5                   1068.2                   418.63                   577.59                   1150.5                   1168.3                   1171.4                   1170.1                   428.05                   602.61                   1181.3                   1194.4                   1196.1                   1194.5                   424.33                   592.90                   1173.6                   1188.0                   1190.1                   1188.5                   413.60                   561.93                   1081.4                   1108.0                   1114.3                   1113.9                   414.43                   563.84                   1095.4                   1120.5                   1126.1                   1125.5                   425.11                   595.09                   1175.8                   1189.8                   1191.8                   1190.2                   427.94                   602.05                   1181.9                   1195.1                   1196.8                   1195.2                   418.30                   575.68                   1138.5                   1157.6                   1161.2                   1160.1                   427.46                   585.35                   1167.2                   1184.7                   1187.6                   1186.2
20.000                   1.5000                   1.5000                   10000                    4000.0                   25.000                   506.51                   642.12                   1106.3                   1122.9                   1126.0                   1124.9                   513.77                   662.14                   1156.8                   1168.8                   1170.3                   1168.7                   523.70                   685.11                   1189.0                   1198.9                   1199.8                   1198.0                   519.75                   676.15                   1178.0                   1188.5                   1189.6                   1187.8                   508.39                   647.71                   1122.7                   1137.5                   1140.0                   1138.7                   509.16                   649.28                   1127.6                   1142.0                   1144.3                   1143.0                   520.58                   678.19                   1180.6                   1190.9                   1192.0                   1190.2                   523.52                   684.40                   1188.6                   1198.6                   1199.4                   1197.6                   513.15                   659.77                   1148.1                   1160.6                   1162.3                   1160.8                   522.94                   678.29                   1217.0                   1227.7                   1228.7                   1226.8
20.000                   1.5000                   1.5000                   10000                    4000.0                   30.000                   581.54                   709.68                   1139.8                   1150.2                   1151.4                   1149.8                   588.35                   728.38                   1173.8                   1182.7                   1183.3                   1181.5                   597.63                   750.97                   1205.4                   1213.5                   1213.8                   1211.8                   593.92                   742.02                   1193.3                   1201.6                   1202.0                   1200.1                   583.34                   714.87                   1149.4                   1159.2                   1160.2                   1158.6                   583.99                   716.32                   1152.4                   1162.1                   1163.1                   1161.4                   594.68                   743.82                   1195.9                   1204.2                   1204.6                   1202.7                   597.42                   750.35                   1204.6                   1212.7                   1213.0                   1211.0                   587.77                   725.93                   1166.9                   1176.0                   1176.7                   1174.9                   600.35                   762.56                   1259.7                   1267.8                   1267.9                   1265.7
20.000                   1.5000                   1.5000                   10000                    4000.0                   35.000                   642.89                   772.88                   1166.2                   1173.3                   1173.4                   1171.6                   648.90                   791.92                   1194.7                   1201.6                   1201.6                   1199.6                   657.10                   816.18                   1226.2                   1233.1                   1233.0                   1230.9                   653.78                   806.33                   1213.5                   1220.4                   1220.3                   1218.3                   644.51                   777.94                   1173.7                   1180.7                   1180.8                   1178.9                   645.04                   779.48                   1176.2                   1183.2                   1183.2                   1181.3                   654.47                   808.32                   1216.2                   1223.1                   1223.0                   1220.9                   656.88                   815.52                   1225.2                   1232.1                   1232.0                   1229.9                   648.63                   790.07                   1189.5                   1196.3                   1196.3                   1194.3                   664.31                   853.41                   1303.3                   1309.9                   1309.4                   1306.9
