% Model:              batchmodel_COIL_N_20_COIL_kr_1.5_COIL_kh_1.5_FUNZ_freq_10000_FUNZ_I_eff_2500.mph
% Version:            COMSOL 6.0.0.318
% Date:               Feb 9 2022, 01:23
% Table:              Tabella 1 - GRIGLIA_T
% COIL_N                 COIL_kr                  COIL_kh                  FUNZ_freq                FUNZ_I_eff               Time (s)                 Temperatura (degC), Point: (0, 0)Temperatura (degC), Point: (15, 0)Temperatura (degC), Point: (28.051, 0)Temperatura (degC), Point: (29.025, 0)Temperatura (degC), Point: (29.61, 0)Temperatura (degC), Point: (29.99, 0)Temperatura (degC), Point: (0, 62.5)Temperatura (degC), Point: (15, 62.5)Temperatura (degC), Point: (28.051, 62.5)Temperatura (degC), Point: (29.025, 62.5)Temperatura (degC), Point: (29.61, 62.5)Temperatura (degC), Point: (29.99, 62.5)Temperatura (degC), Point: (0, 125)Temperatura (degC), Point: (15, 125)Temperatura (degC), Point: (28.051, 125)Temperatura (degC), Point: (29.025, 125)Temperatura (degC), Point: (29.61, 125)Temperatura (degC), Point: (29.99, 125)Temperatura (degC), Point: (0, 187.5)Temperatura (degC), Point: (15, 187.5)Temperatura (degC), Point: (28.051, 187.5)Temperatura (degC), Point: (29.025, 187.5)Temperatura (degC), Point: (29.61, 187.5)Temperatura (degC), Point: (29.99, 187.5)Temperatura (degC), Point: (0, 250)Temperatura (degC), Point: (15, 250)Temperatura (degC), Point: (28.051, 250)Temperatura (degC), Point: (29.025, 250)Temperatura (degC), Point: (29.61, 250)Temperatura (degC), Point: (29.99, 250)Temperatura (degC), Point: (0, 312.5)Temperatura (degC), Point: (15, 312.5)Temperatura (degC), Point: (28.051, 312.5)Temperatura (degC), Point: (29.025, 312.5)Temperatura (degC), Point: (29.61, 312.5)Temperatura (degC), Point: (29.99, 312.5)Temperatura (degC), Point: (0, 375)Temperatura (degC), Point: (15, 375)Temperatura (degC), Point: (28.051, 375)Temperatura (degC), Point: (29.025, 375)Temperatura (degC), Point: (29.61, 375)Temperatura (degC), Point: (29.99, 375)Temperatura (degC), Point: (0, 437.5)Temperatura (degC), Point: (15, 437.5)Temperatura (degC), Point: (28.051, 437.5)Temperatura (degC), Point: (29.025, 437.5)Temperatura (degC), Point: (29.61, 437.5)Temperatura (degC), Point: (29.99, 437.5)Temperatura (degC), Point: (0, 468.75)Temperatura (degC), Point: (15, 468.75)Temperatura (degC), Point: (28.051, 468.75)Temperatura (degC), Point: (29.025, 468.75)Temperatura (degC), Point: (29.61, 468.75)Temperatura (degC), Point: (29.99, 468.75)Temperatura (degC), Point: (0, 492.19)Temperatura (degC), Point: (15, 492.19)Temperatura (degC), Point: (28.051, 492.19)Temperatura (degC), Point: (29.025, 492.19)Temperatura (degC), Point: (29.61, 492.19)Temperatura (degC), Point: (29.99, 492.19)
20.000                   1.5000                   1.5000                   10000                    2500.0                   0.0000                   20.000                   20.000                   20.000                   20.000                   20.123                   20.559                   20.000                   20.000                   20.000                   20.000                   20.144                   20.612                   20.000                   20.000                   20.000                   20.000                   20.165                   20.664                   20.000                   20.000                   20.000                   20.000                   20.156                   20.644                   20.000                   20.000                   20.000                   20.000                   20.128                   20.573                   20.000                   20.000                   20.000                   20.000                   20.130                   20.578                   20.000                   20.000                   20.000                   20.000                   20.158                   20.649                   20.000                   20.000                   20.000                   20.000                   20.164                   20.663                   20.000                   20.000                   20.000                   20.000                   20.138                   20.598                   20.000                   20.000                   20.000                   20.000                   20.150                   20.629
20.000                   1.5000                   1.5000                   10000                    2500.0                   5.0000                   31.371                   68.303                   301.27                   337.34                   359.08                   366.10                   31.538                   69.900                   316.16                   355.24                   378.40                   385.42                   31.739                   71.446                   332.63                   374.74                   400.26                   408.05                   31.785                   71.572                   335.77                   378.11                   403.47                   411.33                   31.240                   68.177                   299.20                   334.76                   356.44                   363.72                   31.603                   70.153                   321.13                   360.09                   383.63                   391.09                   31.835                   71.835                   337.30                   379.54                   404.16                   411.81                   31.882                   72.084                   336.63                   378.14                   403.14                   411.07                   31.503                   69.380                   312.71                   351.15                   374.09                   381.27                   41.431                   82.067                   328.19                   364.83                   387.21                   394.44
20.000                   1.5000                   1.5000                   10000                    2500.0                   10.000                   97.150                   185.80                   544.57                   598.54                   628.60                   636.92                   98.026                   188.79                   559.30                   614.57                   645.36                   654.34                   98.369                   190.84                   580.70                   641.99                   675.59                   684.83                   98.974                   191.55                   573.17                   630.77                   663.19                   672.25                   96.730                   185.57                   548.90                   604.19                   635.28                   643.89                   98.579                   189.29                   554.02                   607.65                   637.15                   645.59                   99.283                   192.11                   571.13                   625.67                   655.76                   664.88                   99.547                   193.26                   585.98                   646.81                   680.20                   689.49                   98.218                   188.09                   557.33                   612.98                   643.96                   652.78                   114.66                   204.58                   549.37                   598.70                   626.53                   634.44
20.000                   1.5000                   1.5000                   10000                    2500.0                   15.000                   199.27                   314.08                   753.97                   830.69                   870.87                   880.79                   200.42                   317.25                   779.92                   865.11                   907.96                   918.24                   200.42                   319.08                   808.88                   901.27                   946.29                   956.83                   201.44                   319.59                   797.58                   886.75                   930.45                   940.86                   198.78                   314.12                   759.06                   837.11                   878.09                   888.16                   201.11                   317.09                   763.65                   841.35                   882.21                   892.35                   201.96                   320.32                   798.35                   887.20                   931.84                   942.46                   202.59                   322.17                   818.43                   912.57                   957.44                   967.76                   200.75                   316.22                   768.60                   849.36                   890.82                   900.99                   216.24                   329.09                   732.83                   796.72                   832.10                   841.15
20.000                   1.5000                   1.5000                   10000                    2500.0                   20.000                   305.55                   431.21                   875.01                   935.65                   964.43                   970.94                   306.84                   435.22                   888.37                   944.81                   971.29                   977.22                   306.95                   440.45                   1103.5                   1151.6                   1163.1                   1163.4                   307.84                   438.77                   930.16                   983.75                   1006.2                   1010.7                   305.17                   431.56                   877.54                   937.45                   965.83                   972.25                   307.29                   433.93                   877.92                   936.61                   964.45                   970.75                   308.51                   439.82                   941.36                   996.03                   1018.1                   1022.3                   309.48                   443.72                   1094.4                   1142.2                   1153.8                   1154.2                   306.78                   433.51                   902.46                   961.67                   988.70                   994.65                   318.28                   440.21                   837.24                   890.03                   916.26                   922.41
20.000                   1.5000                   1.5000                   10000                    2500.0                   25.000                   400.30                   521.96                   926.66                   974.49                   997.30                   1002.3                   402.51                   528.78                   937.69                   978.15                   996.89                   1000.9                   404.28                   542.69                   1136.5                   1161.1                   1166.1                   1165.2                   404.27                   536.34                   1026.9                   1065.3                   1077.1                   1078.2                   400.25                   522.91                   923.87                   969.97                   992.05                   996.89                   402.14                   524.95                   921.91                   966.73                   988.27                   993.01                   405.07                   537.96                   1045.0                   1082.0                   1092.5                   1093.1                   406.76                   545.26                   1128.6                   1153.6                   1158.9                   1158.1                   401.75                   528.34                   972.71                   1012.0                   1027.0                   1029.6                   407.92                   526.12                   874.04                   912.81                   932.25                   936.76
20.000                   1.5000                   1.5000                   10000                    2500.0                   30.000                   479.91                   592.97                   950.18                   986.30                   1003.6                   1007.3                   483.46                   603.26                   999.89                   1032.2                   1044.2                   1045.8                   487.35                   622.27                   1131.8                   1148.2                   1151.0                   1149.7                   486.28                   613.68                   1087.3                   1111.6                   1117.3                   1116.8                   480.29                   594.84                   951.63                   985.77                   1002.0                   1005.4                   482.03                   596.78                   952.31                   985.41                   1001.1                   1004.4                   487.19                   615.64                   1097.1                   1119.6                   1124.5                   1123.8                   489.51                   623.88                   1129.5                   1146.3                   1149.3                   1148.0                   482.31                   604.14                   1032.4                   1061.7                   1070.7                   1071.3                   484.07                   594.86                   913.03                   943.55                   958.89                   962.36
20.000                   1.5000                   1.5000                   10000                    2500.0                   35.000                   547.81                   650.44                   960.54                   986.49                   999.00                   1001.6                   552.62                   663.96                   1057.4                   1081.4                   1087.9                   1087.7                   558.24                   684.94                   1125.1                   1137.3                   1139.0                   1137.6                   556.34                   675.84                   1107.8                   1123.7                   1126.8                   1125.6                   548.61                   653.34                   975.92                   1000.7                   1011.9                   1014.0                   550.25                   655.28                   983.16                   1008.1                   1018.8                   1020.7                   557.34                   677.98                   1111.8                   1126.9                   1129.6                   1128.4                   559.99                   685.83                   1125.6                   1138.1                   1139.9                   1138.5                   551.24                   665.15                   1069.3                   1090.9                   1096.3                   1095.9                   549.61                   651.36                   952.12                   976.04                   987.51                   989.90
20.000                   1.5000                   1.5000                   10000                    2500.0                   40.000                   601.08                   694.34                   978.51                   997.91                   1006.8                   1008.3                   606.47                   709.78                   1081.2                   1098.5                   1102.5                   1101.7                   612.81                   730.78                   1123.4                   1133.2                   1134.3                   1132.8                   610.54                   722.09                   1112.6                   1124.7                   1126.6                   1125.3                   602.10                   698.04                   1007.5                   1028.3                   1036.1                   1037.0                   603.59                   699.92                   1018.0                   1039.0                   1046.4                   1047.0                   611.54                   724.04                   1115.1                   1126.7                   1128.4                   1127.0                   614.13                   731.27                   1124.3                   1134.2                   1135.4                   1133.9                   604.89                   710.38                   1084.9                   1101.3                   1104.8                   1104.0                   601.41                   695.22                   994.37                   1015.1                   1023.4                   1024.4
20.000                   1.5000                   1.5000                   10000                    2500.0                   45.000                   645.62                   732.10                   1008.8                   1024.6                   1030.5                   1031.0                   651.15                   749.78                   1091.9                   1104.6                   1107.0                   1105.9                   657.68                   772.28                   1123.3                   1131.2                   1131.9                   1130.2                   655.27                   763.14                   1114.5                   1124.0                   1125.1                   1123.6                   646.73                   736.43                   1037.3                   1054.0                   1059.1                   1059.0                   648.06                   738.48                   1046.3                   1062.8                   1067.5                   1067.2                   656.24                   765.26                   1116.5                   1125.6                   1126.6                   1125.1                   658.66                   772.62                   1123.7                   1131.7                   1132.4                   1130.8                   649.42                   749.48                   1091.2                   1103.7                   1106.0                   1104.9                   645.16                   734.49                   1048.2                   1064.4                   1069.0                   1068.7
20.000                   1.5000                   1.5000                   10000                    2500.0                   50.000                   682.22                   769.08                   1041.2                   1053.9                   1057.5                   1057.1                   687.41                   788.50                   1097.8                   1107.4                   1108.7                   1107.4                   693.57                   811.93                   1124.5                   1131.0                   1131.2                   1129.5                   691.25                   802.54                   1116.1                   1123.6                   1124.1                   1122.5                   683.30                   773.79                   1061.2                   1073.9                   1076.8                   1076.0                   684.42                   776.12                   1067.3                   1079.5                   1082.3                   1081.4                   692.12                   804.83                   1117.9                   1125.2                   1125.7                   1124.1                   694.25                   812.12                   1124.3                   1130.9                   1131.1                   1129.4                   685.66                   786.96                   1094.8                   1104.4                   1105.8                   1104.5                   681.68                   775.17                   1090.3                   1101.5                   1103.4                   1102.1
20.000                   1.5000                   1.5000                   10000                    2500.0                   55.000                   711.27                   807.65                   1067.9                   1077.6                   1079.5                   1078.4                   715.96                   827.19                   1103.5                   1110.7                   1111.3                   1109.7                   721.66                   849.88                   1127.1                   1132.4                   1132.2                   1130.4                   719.48                   840.90                   1118.8                   1124.8                   1124.9                   1123.2                   712.22                   812.31                   1079.2                   1088.2                   1089.7                   1088.4                   713.16                   814.78                   1082.9                   1091.6                   1093.0                   1091.7                   720.26                   843.21                   1120.7                   1126.5                   1126.5                   1124.8                   722.15                   849.96                   1126.6                   1131.9                   1131.7                   1130.0                   714.21                   824.28                   1099.3                   1106.6                   1107.3                   1105.8                   711.21                   819.48                   1117.8                   1124.8                   1125.2                   1123.5
20.000                   1.5000                   1.5000                   10000                    2500.0                   60.000                   734.58                   847.56                   1086.2                   1093.1                   1093.7                   1092.3                   739.14                   865.19                   1110.2                   1115.6                   1115.6                   1114.0                   745.04                   885.54                   1131.2                   1135.4                   1134.9                   1133.0                   742.75                   877.52                   1123.3                   1128.0                   1127.7                   1125.9                   735.38                   851.70                   1092.8                   1099.3                   1099.7                   1098.2                   736.28                   854.05                   1095.3                   1101.6                   1101.9                   1100.4                   743.57                   879.67                   1125.1                   1129.6                   1129.3                   1127.5                   745.51                   885.58                   1130.5                   1134.8                   1134.3                   1132.5                   737.22                   861.14                   1105.5                   1111.1                   1111.2                   1109.6                   735.59                   866.49                   1137.6                   1142.0                   1141.5                   1139.6
20.000                   1.5000                   1.5000                   10000                    2500.0                   65.000                   757.26                   886.64                   1099.3                   1104.0                   1103.8                   1102.2                   762.70                   901.58                   1117.7                   1121.6                   1121.2                   1119.4                   770.14                   919.05                   1136.3                   1139.6                   1138.8                   1136.9                   767.21                   912.17                   1129.0                   1132.6                   1131.9                   1130.0                   758.12                   890.03                   1104.0                   1108.5                   1108.2                   1106.6                   759.18                   892.15                   1105.9                   1110.3                   1110.0                   1108.3                   768.31                   914.13                   1130.7                   1134.2                   1133.4                   1131.6                   770.78                   919.14                   1135.7                   1139.0                   1138.2                   1136.3                   760.10                   896.92                   1112.8                   1117.0                   1116.6                   1114.8                   760.49                   913.03                   1153.5                   1156.3                   1155.3                   1153.2
20.000                   1.5000                   1.5000                   10000                    2500.0                   70.000                   798.77                   921.39                   1108.9                   1112.3                   1111.7                   1109.9                   804.98                   934.14                   1125.4                   1128.4                   1127.6                   1125.7                   813.01                   949.20                   1142.9                   1145.5                   1144.4                   1142.4                   809.92                   943.27                   1136.0                   1138.7                   1137.7                   1135.8                   799.85                   924.23                   1113.0                   1116.3                   1115.7                   1113.9                   801.12                   926.11                   1114.8                   1118.0                   1117.3                   1115.5                   811.17                   945.02                   1137.6                   1140.2                   1139.3                   1137.3                   813.73                   949.36                   1142.4                   1145.0                   1143.9                   1141.9                   802.25                   930.27                   1121.0                   1124.1                   1123.3                   1121.5                   809.70                   953.78                   1167.0                   1169.0                   1167.6                   1165.4
20.000                   1.5000                   1.5000                   10000                    2500.0                   75.000                   840.28                   956.14                   1118.4                   1120.5                   1119.5                   1117.6                   847.27                   966.70                   1133.2                   1135.2                   1134.0                   1132.1                   855.88                   979.35                   1149.5                   1151.3                   1150.0                   1147.9                   852.62                   974.36                   1143.0                   1144.9                   1143.6                   1141.6                   841.58                   958.42                   1122.1                   1124.2                   1123.1                   1121.2                   843.05                   960.06                   1123.6                   1125.7                   1124.6                   1122.7                   854.03                   975.91                   1144.5                   1146.3                   1145.1                   1143.0                   856.68                   979.59                   1149.1                   1150.9                   1149.6                   1147.5                   844.40                   963.62                   1129.2                   1131.3                   1130.1                   1128.1                   858.90                   994.54                   1180.5                   1181.6                   1179.9                   1177.7