% Model:              batchmodel_COIL_N_20_COIL_kr_2.25_COIL_kh_1.5_FUNZ_freq_6000_FUNZ_I_eff_4000.mph
% Version:            COMSOL 6.0.0.318
% Date:               Feb 9 2022, 02:31
% Table:              Tabella 1 - GRIGLIA_T
% COIL_N                 COIL_kr                  COIL_kh                  FUNZ_freq                FUNZ_I_eff               Time (s)                 Temperatura (degC), Point: (0, 0)Temperatura (degC), Point: (15, 0)Temperatura (degC), Point: (27.483, 0)Temperatura (degC), Point: (28.742, 0)Temperatura (degC), Point: (29.497, 0)Temperatura (degC), Point: (29.99, 0)Temperatura (degC), Point: (0, 62.5)Temperatura (degC), Point: (15, 62.5)Temperatura (degC), Point: (27.483, 62.5)Temperatura (degC), Point: (28.742, 62.5)Temperatura (degC), Point: (29.497, 62.5)Temperatura (degC), Point: (29.99, 62.5)Temperatura (degC), Point: (0, 125)Temperatura (degC), Point: (15, 125)Temperatura (degC), Point: (27.483, 125)Temperatura (degC), Point: (28.742, 125)Temperatura (degC), Point: (29.497, 125)Temperatura (degC), Point: (29.99, 125)Temperatura (degC), Point: (0, 187.5)Temperatura (degC), Point: (15, 187.5)Temperatura (degC), Point: (27.483, 187.5)Temperatura (degC), Point: (28.742, 187.5)Temperatura (degC), Point: (29.497, 187.5)Temperatura (degC), Point: (29.99, 187.5)Temperatura (degC), Point: (0, 250)Temperatura (degC), Point: (15, 250)Temperatura (degC), Point: (27.483, 250)Temperatura (degC), Point: (28.742, 250)Temperatura (degC), Point: (29.497, 250)Temperatura (degC), Point: (29.99, 250)Temperatura (degC), Point: (0, 312.5)Temperatura (degC), Point: (15, 312.5)Temperatura (degC), Point: (27.483, 312.5)Temperatura (degC), Point: (28.742, 312.5)Temperatura (degC), Point: (29.497, 312.5)Temperatura (degC), Point: (29.99, 312.5)Temperatura (degC), Point: (0, 375)Temperatura (degC), Point: (15, 375)Temperatura (degC), Point: (27.483, 375)Temperatura (degC), Point: (28.742, 375)Temperatura (degC), Point: (29.497, 375)Temperatura (degC), Point: (29.99, 375)Temperatura (degC), Point: (0, 437.5)Temperatura (degC), Point: (15, 437.5)Temperatura (degC), Point: (27.483, 437.5)Temperatura (degC), Point: (28.742, 437.5)Temperatura (degC), Point: (29.497, 437.5)Temperatura (degC), Point: (29.99, 437.5)Temperatura (degC), Point: (0, 468.75)Temperatura (degC), Point: (15, 468.75)Temperatura (degC), Point: (27.483, 468.75)Temperatura (degC), Point: (28.742, 468.75)Temperatura (degC), Point: (29.497, 468.75)Temperatura (degC), Point: (29.99, 468.75)Temperatura (degC), Point: (0, 492.19)Temperatura (degC), Point: (15, 492.19)Temperatura (degC), Point: (27.483, 492.19)Temperatura (degC), Point: (28.742, 492.19)Temperatura (degC), Point: (29.497, 492.19)Temperatura (degC), Point: (29.99, 492.19)
20.000                   2.2500                   1.5000                   6000.0                   4000.0                   0.0000                   20.000                   20.000                   20.000                   20.000                   20.197                   20.640                   20.000                   20.000                   20.000                   20.000                   20.199                   20.644                   20.000                   20.000                   20.000                   20.000                   20.201                   20.649                   20.000                   20.000                   20.000                   20.000                   20.200                   20.647                   20.000                   20.000                   20.000                   20.000                   20.197                   20.641                   20.000                   20.000                   20.000                   20.000                   20.197                   20.641                   20.000                   20.000                   20.000                   20.000                   20.200                   20.647                   20.000                   20.000                   20.000                   20.000                   20.200                   20.648                   20.000                   20.000                   20.000                   20.000                   20.193                   20.632                   20.000                   20.000                   20.000                   20.000                   20.165                   20.579
20.000                   2.2500                   1.5000                   6000.0                   4000.0                   5.0000                   30.819                   92.008                   470.47                   559.68                   607.38                   620.73                   30.772                   91.892                   466.48                   555.35                   603.87                   616.94                   30.806                   92.257                   472.69                   564.02                   613.69                   627.17                   30.803                   92.167                   471.21                   561.87                   611.13                   624.51                   30.770                   91.834                   464.41                   551.06                   599.34                   612.55                   30.763                   91.855                   467.49                   557.26                   606.16                   619.45                   30.790                   92.173                   472.32                   562.51                   612.07                   625.46                   30.784                   92.091                   469.69                   560.09                   609.46                   622.83                   30.338                   88.946                   443.82                   526.42                   572.95                   585.65                   32.879                   90.080                   382.16                   444.82                   481.22                   491.65
20.000                   2.2500                   1.5000                   6000.0                   4000.0                   10.000                   124.42                   257.72                   823.73                   970.93                   1031.8                   1044.1                   123.99                   256.19                   820.03                   970.47                   1032.9                   1045.5                   124.48                   257.83                   844.69                   1001.0                   1060.6                   1071.6                   124.37                   257.39                   840.08                   996.32                   1056.6                   1067.8                   123.85                   255.57                   810.94                   959.69                   1022.6                   1035.5                   124.25                   257.19                   833.58                   986.36                   1047.3                   1059.1                   124.38                   257.49                   837.01                   991.75                   1052.5                   1064.0                   123.92                   256.58                   845.34                   1003.7                   1063.3                   1074.3                   119.78                   246.17                   757.90                   892.39                   956.34                   970.57                   121.49                   239.55                   642.39                   719.68                   761.03                   771.83
20.000                   2.2500                   1.5000                   6000.0                   4000.0                   15.000                   257.59                   409.62                   880.31                   947.86                   977.74                   983.97                   256.93                   414.40                   1101.2                   1164.3                   1178.3                   1178.4                   258.30                   419.02                   1133.6                   1187.2                   1198.7                   1198.2                   257.99                   418.69                   1151.6                   1203.8                   1214.8                   1214.1                   256.19                   410.45                   1012.0                   1089.4                   1109.2                   1110.9                   257.66                   414.70                   1075.9                   1140.1                   1155.0                   1155.4                   257.96                   418.22                   1132.5                   1187.2                   1199.0                   1198.5                   257.17                   418.58                   1137.5                   1189.0                   1200.0                   1199.4                   247.64                   396.21                   1021.9                   1113.6                   1136.5                   1138.4                   243.83                   376.30                   758.23                   829.97                   866.69                   875.39
20.000                   2.2500                   1.5000                   6000.0                   4000.0                   20.000                   376.26                   520.40                   916.26                   963.82                   984.96                   989.13                   378.18                   539.36                   1140.4                   1170.4                   1175.9                   1174.5                   379.99                   543.11                   1150.9                   1179.6                   1184.8                   1183.3                   379.80                   544.77                   1169.1                   1196.1                   1200.7                   1198.9                   376.19                   530.13                   1074.3                   1115.4                   1125.0                   1124.6                   378.19                   533.39                   1091.2                   1129.2                   1137.5                   1136.8                   379.67                   543.21                   1151.0                   1179.3                   1184.4                   1182.8                   379.18                   543.18                   1144.0                   1172.4                   1177.6                   1176.1                   365.01                   519.39                   1140.4                   1177.6                   1185.2                   1184.0                   352.33                   479.31                   842.46                   908.35                   939.95                   946.88
20.000                   2.2500                   1.5000                   6000.0                   4000.0                   25.000                   475.86                   608.92                   985.77                   1021.4                   1034.4                   1036.1                   480.64                   635.50                   1145.2                   1163.5                   1166.1                   1164.1                   482.12                   636.79                   1145.3                   1164.0                   1166.6                   1164.7                   482.39                   640.27                   1157.4                   1174.5                   1176.7                   1174.6                   477.72                   623.92                   1104.3                   1128.8                   1133.5                   1132.1                   479.54                   625.08                   1102.0                   1126.2                   1130.8                   1129.4                   482.07                   638.11                   1149.6                   1167.6                   1170.0                   1168.0                   481.85                   637.09                   1136.7                   1155.2                   1157.9                   1156.0                   466.07                   618.74                   1159.4                   1179.6                   1182.6                   1180.6                   444.41                   562.49                   901.47                   954.15                   978.92                   984.04
20.000                   2.2500                   1.5000                   6000.0                   4000.0                   30.000                   559.95                   682.13                   1078.1                   1101.8                   1106.7                   1105.5                   566.56                   709.44                   1143.4                   1156.1                   1157.2                   1155.0                   567.45                   708.89                   1140.2                   1153.4                   1154.7                   1152.6                   568.22                   713.07                   1147.4                   1159.6                   1160.6                   1158.4                   563.28                   698.23                   1122.7                   1138.2                   1140.3                   1138.4                   564.75                   698.11                   1119.2                   1135.1                   1137.2                   1135.3                   567.76                   711.25                   1145.4                   1158.0                   1159.1                   1156.9                   567.69                   709.58                   1137.2                   1150.4                   1151.7                   1149.5                   552.19                   697.62                   1157.7                   1170.7                   1171.8                   1169.5                   522.62                   631.43                   952.16                   991.92                   1009.6                   1012.8
20.000                   2.2500                   1.5000                   6000.0                   4000.0                   35.000                   628.79                   743.37                   1125.4                   1138.3                   1139.7                   1137.6                   635.61                   769.23                   1147.1                   1156.5                   1156.8                   1154.4                   635.94                   767.30                   1145.2                   1155.0                   1155.4                   1153.1                   637.01                   772.09                   1148.4                   1157.7                   1157.9                   1155.6                   632.59                   758.34                   1138.6                   1149.1                   1149.7                   1147.5                   633.74                   758.01                   1136.8                   1147.5                   1148.2                   1145.9                   636.53                   770.58                   1148.3                   1157.7                   1157.9                   1155.5                   636.57                   768.80                   1145.3                   1155.0                   1155.3                   1153.0                   623.11                   760.73                   1156.6                   1165.9                   1166.1                   1163.6                   588.85                   689.10                   1030.5                   1062.4                   1071.5                   1071.5
20.000                   2.2500                   1.5000                   6000.0                   4000.0                   40.000                   683.00                   804.41                   1148.1                   1156.3                   1156.2                   1153.8                   688.77                   827.63                   1156.4                   1163.5                   1163.1                   1160.6                   688.78                   825.72                   1156.4                   1163.5                   1163.1                   1160.7                   689.83                   829.80                   1157.4                   1164.4                   1163.9                   1161.4                   686.43                   818.58                   1153.0                   1160.4                   1160.1                   1157.6                   687.32                   818.81                   1152.7                   1160.1                   1159.8                   1157.3                   689.42                   828.92                   1157.5                   1164.5                   1164.1                   1161.6                   689.51                   827.82                   1156.9                   1164.0                   1163.6                   1161.1                   679.04                   820.65                   1159.6                   1166.6                   1166.0                   1163.5                   644.06                   739.95                   1112.7                   1130.6                   1133.2                   1131.4
20.000                   2.2500                   1.5000                   6000.0                   4000.0                   45.000                   722.02                   870.02                   1164.9                   1170.5                   1169.7                   1167.0                   725.87                   885.20                   1169.1                   1174.4                   1173.4                   1170.7                   725.78                   884.45                   1170.0                   1175.3                   1174.3                   1171.6                   726.60                   886.95                   1170.1                   1175.3                   1174.3                   1171.6                   724.33                   879.85                   1167.4                   1172.7                   1171.7                   1169.1                   724.99                   880.91                   1167.7                   1173.0                   1172.1                   1169.4                   726.30                   886.57                   1170.2                   1175.4                   1174.4                   1171.8                   726.41                   886.55                   1170.4                   1175.6                   1174.5                   1171.9                   719.60                   878.07                   1167.4                   1172.7                   1171.7                   1169.0                   689.23                   797.08                   1163.0                   1172.2                   1172.3                   1169.8
20.000                   2.2500                   1.5000                   6000.0                   4000.0                   50.000                   756.92                   931.53                   1182.2                   1186.1                   1184.6                   1181.8                   760.35                   939.91                   1184.0                   1187.9                   1186.4                   1183.6                   760.26                   940.07                   1185.4                   1189.2                   1187.8                   1185.0                   761.15                   941.46                   1185.1                   1188.9                   1187.4                   1184.6                   759.03                   937.17                   1183.1                   1187.0                   1185.5                   1182.7                   759.90                   938.81                   1183.8                   1187.7                   1186.2                   1183.4                   760.87                   941.22                   1185.1                   1189.0                   1187.5                   1184.7                   761.16                   941.88                   1185.5                   1189.4                   1187.9                   1185.1                   754.22                   931.39                   1178.9                   1182.8                   1181.4                   1178.6                   725.08                   867.26                   1199.1                   1204.5                   1203.3                   1200.4
20.000                   2.2500                   1.5000                   6000.0                   4000.0                   55.000                   805.42                   986.18                   1200.8                   1203.7                   1201.9                   1198.9                   809.14                   990.75                   1201.9                   1204.8                   1203.0                   1200.0                   809.25                   991.37                   1203.4                   1206.3                   1204.5                   1201.5                   810.36                   992.23                   1203.0                   1206.0                   1204.1                   1201.2                   807.82                   989.25                   1201.2                   1204.1                   1202.3                   1199.3                   809.32                   991.03                   1202.0                   1204.9                   1203.1                   1200.1                   809.93                   991.91                   1203.0                   1205.9                   1204.1                   1201.1                   810.53                   992.68                   1203.3                   1206.3                   1204.5                   1201.5                   799.41                   980.75                   1194.9                   1197.9                   1196.1                   1193.2                   765.55                   943.57                   1226.0                   1230.1                   1228.4                   1225.4
20.000                   2.2500                   1.5000                   6000.0                   4000.0                   60.000                   870.34                   1037.5                   1220.3                   1222.4                   1220.2                   1217.1                   873.45                   1039.8                   1221.3                   1223.4                   1221.3                   1218.2                   873.89                   1040.6                   1222.8                   1225.0                   1222.9                   1219.7                   875.06                   1041.2                   1222.5                   1224.6                   1222.5                   1219.4                   872.45                   1039.0                   1220.6                   1222.7                   1220.5                   1217.4                   874.59                   1040.7                   1221.5                   1223.6                   1221.4                   1218.3                   874.39                   1040.7                   1222.3                   1224.5                   1222.4                   1219.2                   875.30                   1041.4                   1222.5                   1224.7                   1222.6                   1219.4                   859.58                   1028.9                   1213.1                   1215.3                   1213.2                   1210.1                   819.39                   1016.7                   1252.0                   1254.7                   1252.6                   1249.3
20.000                   2.2500                   1.5000                   6000.0                   4000.0                   65.000                   938.80                   1082.8                   1243.0                   1244.5                   1242.0                   1238.7                   940.64                   1084.1                   1243.9                   1245.4                   1242.9                   1239.6                   941.22                   1084.9                   1245.5                   1247.0                   1244.5                   1241.3                   942.19                   1085.3                   1245.2                   1246.7                   1244.2                   1240.9                   940.06                   1083.6                   1243.2                   1244.7                   1242.2                   1238.9                   942.16                   1085.1                   1244.1                   1245.5                   1243.1                   1239.8                   941.43                   1084.9                   1244.9                   1246.4                   1244.0                   1240.7                   942.16                   1085.2                   1244.9                   1246.4                   1244.0                   1240.7                   926.57                   1073.7                   1235.4                   1236.9                   1234.4                   1231.2                   897.79                   1078.3                   1280.8                   1282.6                   1280.1                   1276.6
20.000                   2.2500                   1.5000                   6000.0                   4000.0                   70.000                   1002.9                   1125.7                   1266.6                   1267.4                   1264.6                   1261.2                   1003.7                   1126.2                   1267.4                   1268.2                   1265.5                   1262.0                   1004.4                   1127.1                   1269.0                   1269.9                   1267.1                   1263.6                   1005.1                   1127.4                   1268.7                   1269.5                   1266.7                   1263.3                   1003.5                   1126.0                   1266.7                   1267.5                   1264.7                   1261.3                   1005.4                   1127.3                   1267.6                   1268.4                   1265.6                   1262.1                   1004.3                   1126.9                   1268.4                   1269.2                   1266.5                   1263.0                   1004.8                   1126.9                   1268.2                   1269.0                   1266.2                   1262.8                   990.53                   1116.7                   1259.0                   1259.8                   1257.0                   1253.6                   974.72                   1135.0                   1310.5                   1311.3                   1308.3                   1304.6
20.000                   2.2500                   1.5000                   6000.0                   4000.0                   75.000                   1062.3                   1166.2                   1291.1                   1291.2                   1288.1                   1284.4                   1062.3                   1166.3                   1291.8                   1291.9                   1288.8                   1285.2                   1062.9                   1167.1                   1293.4                   1293.5                   1290.4                   1286.8                   1063.5                   1167.3                   1293.1                   1293.2                   1290.1                   1286.5                   1062.2                   1166.1                   1291.1                   1291.2                   1288.1                   1284.4                   1063.9                   1167.3                   1292.0                   1292.0                   1288.9                   1285.2                   1062.7                   1166.7                   1292.8                   1292.9                   1289.8                   1286.1                   1062.8                   1166.5                   1292.3                   1292.4                   1289.3                   1285.7                   1051.0                   1158.0                   1283.9                   1284.0                   1280.9                   1277.3                   1049.3                   1186.9                   1340.8                   1340.8                   1337.3                   1333.4
