% Model:              batchmodel_COIL_N_20_COIL_kr_2.25_COIL_kh_1.5_FUNZ_freq_2000_FUNZ_I_eff_1000.mph
% Version:            COMSOL 6.0.0.318
% Date:               Feb 9 2022, 01:49
% Table:              Tabella 1 - GRIGLIA_T
% COIL_N                 COIL_kr                  COIL_kh                  FUNZ_freq                FUNZ_I_eff               Time (s)                 Temperatura (degC), Point: (0, 0)Temperatura (degC), Point: (15, 0)Temperatura (degC), Point: (25.641, 0)Temperatura (degC), Point: (27.821, 0)Temperatura (degC), Point: (29.128, 0)Temperatura (degC), Point: (29.99, 0)Temperatura (degC), Point: (0, 62.5)Temperatura (degC), Point: (15, 62.5)Temperatura (degC), Point: (25.641, 62.5)Temperatura (degC), Point: (27.821, 62.5)Temperatura (degC), Point: (29.128, 62.5)Temperatura (degC), Point: (29.99, 62.5)Temperatura (degC), Point: (0, 125)Temperatura (degC), Point: (15, 125)Temperatura (degC), Point: (25.641, 125)Temperatura (degC), Point: (27.821, 125)Temperatura (degC), Point: (29.128, 125)Temperatura (degC), Point: (29.99, 125)Temperatura (degC), Point: (0, 187.5)Temperatura (degC), Point: (15, 187.5)Temperatura (degC), Point: (25.641, 187.5)Temperatura (degC), Point: (27.821, 187.5)Temperatura (degC), Point: (29.128, 187.5)Temperatura (degC), Point: (29.99, 187.5)Temperatura (degC), Point: (0, 250)Temperatura (degC), Point: (15, 250)Temperatura (degC), Point: (25.641, 250)Temperatura (degC), Point: (27.821, 250)Temperatura (degC), Point: (29.128, 250)Temperatura (degC), Point: (29.99, 250)Temperatura (degC), Point: (0, 312.5)Temperatura (degC), Point: (15, 312.5)Temperatura (degC), Point: (25.641, 312.5)Temperatura (degC), Point: (27.821, 312.5)Temperatura (degC), Point: (29.128, 312.5)Temperatura (degC), Point: (29.99, 312.5)Temperatura (degC), Point: (0, 375)Temperatura (degC), Point: (15, 375)Temperatura (degC), Point: (25.641, 375)Temperatura (degC), Point: (27.821, 375)Temperatura (degC), Point: (29.128, 375)Temperatura (degC), Point: (29.99, 375)Temperatura (degC), Point: (0, 437.5)Temperatura (degC), Point: (15, 437.5)Temperatura (degC), Point: (25.641, 437.5)Temperatura (degC), Point: (27.821, 437.5)Temperatura (degC), Point: (29.128, 437.5)Temperatura (degC), Point: (29.99, 437.5)Temperatura (degC), Point: (0, 468.75)Temperatura (degC), Point: (15, 468.75)Temperatura (degC), Point: (25.641, 468.75)Temperatura (degC), Point: (27.821, 468.75)Temperatura (degC), Point: (29.128, 468.75)Temperatura (degC), Point: (29.99, 468.75)Temperatura (degC), Point: (0, 492.19)Temperatura (degC), Point: (15, 492.19)Temperatura (degC), Point: (25.641, 492.19)Temperatura (degC), Point: (27.821, 492.19)Temperatura (degC), Point: (29.128, 492.19)Temperatura (degC), Point: (29.99, 492.19)
20.000                   2.2500                   1.5000                   2000.0                   1000.0                   0.0000                   20.000                   20.000                   20.000                   20.000                   20.001                   20.046                   20.000                   20.000                   20.000                   20.000                   20.001                   20.047                   20.000                   20.000                   20.000                   20.000                   20.001                   20.047                   20.000                   20.000                   20.000                   20.000                   20.001                   20.047                   20.000                   20.000                   20.000                   20.000                   20.001                   20.046                   20.000                   20.000                   20.000                   20.000                   20.001                   20.047                   20.000                   20.000                   20.000                   20.000                   20.001                   20.047                   20.000                   20.000                   20.000                   20.000                   20.001                   20.047                   20.000                   20.000                   20.000                   20.000                   20.001                   20.043                   20.000                   20.000                   20.000                   20.000                   20.000                   20.029
20.000                   2.2500                   1.5000                   2000.0                   1000.0                   5.0000                   20.954                   23.956                   37.371                   42.341                   45.623                   47.260                   20.941                   23.952                   37.900                   43.192                   46.298                   47.870                   20.927                   23.877                   37.616                   42.994                   46.254                   47.822                   20.944                   23.953                   37.726                   42.869                   46.025                   47.476                   20.945                   23.933                   37.350                   42.340                   45.646                   47.295                   20.940                   23.941                   37.607                   42.655                   45.902                   47.534                   20.917                   23.856                   37.588                   42.754                   45.968                   47.537                   20.932                   23.895                   37.363                   42.462                   45.851                   47.546                   20.820                   23.501                   36.292                   41.323                   44.509                   46.092                   20.621                   22.362                   29.480                   31.959                   33.639                   34.539
20.000                   2.2500                   1.5000                   2000.0                   1000.0                   10.000                   27.118                   34.157                   51.501                   56.749                   60.197                   61.864                   27.153                   34.367                   52.645                   58.230                   61.619                   63.255                   27.117                   34.359                   52.963                   58.735                   62.251                   63.919                   27.154                   34.378                   52.585                   58.164                   61.820                   63.558                   27.067                   34.088                   51.420                   56.661                   60.102                   61.766                   27.090                   34.189                   51.801                   57.113                   60.582                   62.252                   27.135                   34.395                   52.870                   58.606                   62.147                   63.830                   26.973                   33.960                   51.303                   56.536                   59.938                   61.581                   26.097                   32.374                   48.260                   53.044                   56.034                   57.503                   24.679                   28.963                   38.866                   41.675                   43.413                   44.321
20.000                   2.2500                   1.5000                   2000.0                   1000.0                   15.000                   37.048                   46.170                   65.630                   71.141                   74.714                   76.414                   37.517                   47.292                   69.275                   75.478                   78.917                   80.579                   37.438                   47.371                   70.210                   76.903                   80.669                   82.403                   37.394                   47.157                   68.967                   75.284                   79.299                   81.086                   36.976                   46.125                   65.675                   71.196                   74.767                   76.465                   37.249                   46.685                   67.143                   72.885                   76.509                   78.224                   37.742                   47.795                   70.526                   77.130                   80.937                   82.704                   36.677                   45.799                   65.438                   70.958                   74.476                   76.147                   34.775                   43.283                   62.520                   67.993                   71.193                   72.746                   31.926                   37.961                   50.158                   53.192                   54.945                   55.848
20.000                   2.2500                   1.5000                   2000.0                   1000.0                   20.000                   48.578                   59.020                   79.870                   85.588                   89.255                   90.979                   49.721                   61.325                   85.950                   92.537                   96.078                   97.782                   49.560                   61.429                   87.339                   94.630                   98.639                   100.45                   49.373                   60.925                   85.329                   92.124                   96.299                   98.058                   48.515                   59.055                   80.152                   85.915                   89.600                   91.329                   49.181                   60.225                   82.802                   88.901                   92.646                   94.396                   50.336                   62.456                   88.413                   95.598                   99.655                   101.51                   47.953                   58.483                   79.762                   85.549                   89.197                   90.906                   44.960                   55.097                   77.040                   83.140                   86.610                   88.264                   40.687                   48.029                   61.874                   65.030                   66.799                   67.694
20.000                   2.2500                   1.5000                   2000.0                   1000.0                   25.000                   61.038                   72.428                   94.334                   100.22                   103.97                   105.72                   63.031                   76.068                   102.84                   109.82                   113.50                   115.21                   62.750                   76.166                   104.77                   112.65                   116.89                   118.75                   62.367                   75.302                   101.77                   108.92                   113.19                   114.91                   61.017                   72.589                   94.913                   100.88                   104.67                   106.43                   62.186                   74.457                   98.685                   105.06                   108.90                   110.67                   64.180                   77.988                   106.76                   114.57                   118.90                   120.82                   60.167                   71.771                   94.439                   100.47                   104.23                   105.97                   56.067                   67.486                   91.531                   98.079                   101.71                   103.40                   50.449                   58.791                   73.831                   77.090                   78.888                   79.782
20.000                   2.2500                   1.5000                   2000.0                   1000.0                   30.000                   74.655                   86.463                   108.92                   114.92                   118.75                   120.51                   77.496                   91.147                   118.73                   125.85                   129.61                   131.32                   77.008                   91.051                   120.55                   128.56                   132.88                   134.72                   76.450                   89.962                   117.15                   124.39                   128.67                   130.35                   74.699                   86.740                   109.71                   115.81                   119.69                   121.46                   76.452                   89.264                   114.18                   120.67                   124.57                   126.34                   79.475                   94.124                   124.17                   132.24                   136.72                   138.68                   73.556                   85.660                   109.01                   115.17                   118.99                   120.74                   68.416                   80.501                   105.66                   112.50                   116.30                   117.99                   61.673                   70.494                   86.051                   89.362                   91.211                   92.120
20.000                   2.2500                   1.5000                   2000.0                   1000.0                   35.000                   88.271                   100.50                   123.51                   129.63                   133.52                   135.30                   91.962                   106.23                   134.61                   141.88                   145.72                   147.43                   91.265                   105.94                   136.32                   144.47                   148.86                   150.69                   90.533                   104.62                   132.53                   139.86                   144.14                   145.78                   88.381                   100.89                   124.50                   130.74                   134.71                   136.50                   90.717                   104.07                   129.68                   136.28                   140.23                   142.02                   94.769                   110.26                   141.57                   149.91                   154.54                   156.54                   86.945                   99.550                   123.59                   129.87                   133.76                   135.52                   80.765                   93.516                   119.79                   126.92                   130.88                   132.59                   72.898                   82.196                   98.272                   101.63                   103.53                   104.46
20.000                   2.2500                   1.5000                   2000.0                   1000.0                   40.000                   102.23                   114.77                   138.25                   144.48                   148.44                   150.23                   106.77                   121.51                   150.62                   158.03                   161.94                   163.65                   105.83                   120.95                   151.96                   160.18                   164.63                   166.44                   104.87                   119.35                   147.70                   155.07                   159.35                   160.96                   102.42                   115.28                   139.42                   145.80                   149.84                   151.65                   105.37                   119.14                   145.34                   152.07                   156.09                   157.88                   110.46                   126.59                   158.89                   167.41                   172.19                   174.21                   100.68                   113.66                   138.28                   144.69                   148.64                   150.42                   93.473                   106.71                   133.81                   141.17                   145.27                   146.98                   84.638                   94.298                   110.80                   114.22                   116.16                   117.09
20.000                   2.2500                   1.5000                   2000.0                   1000.0                   45.000                   116.63                   129.35                   153.18                   159.52                   163.55                   165.34                   122.03                   137.06                   166.79                   174.34                   178.31                   180.00                   120.78                   136.11                   167.43                   175.64                   180.12                   181.90                   119.53                   134.16                   162.60                   169.95                   174.22                   175.80                   116.91                   129.98                   154.52                   161.01                   165.12                   166.95                   120.52                   134.54                   161.23                   168.08                   172.19                   173.99                   126.66                   143.17                   176.08                   184.72                   189.60                   191.64                   114.85                   128.07                   153.13                   159.66                   163.69                   165.49                   106.64                   120.14                   147.70                   155.19                   159.42                   161.12                   97.037                   106.91                   123.72                   127.20                   129.16                   130.10
20.000                   2.2500                   1.5000                   2000.0                   1000.0                   50.000                   131.03                   143.92                   168.12                   174.55                   178.65                   180.46                   137.29                   152.60                   182.95                   190.64                   194.68                   196.36                   135.72                   151.28                   182.91                   191.09                   195.61                   197.36                   134.20                   148.96                   177.51                   184.83                   189.08                   190.64                   131.41                   144.68                   169.61                   176.21                   180.41                   182.25                   135.66                   149.94                   177.11                   184.10                   188.28                   190.11                   142.85                   159.75                   193.28                   202.02                   207.01                   209.06                   129.03                   142.47                   167.98                   174.63                   178.74                   180.56                   119.80                   133.57                   161.58                   169.21                   173.57                   175.26                   109.44                   119.52                   136.65                   140.19                   142.17                   143.11
20.000                   2.2500                   1.5000                   2000.0                   1000.0                   55.000                   144.92                   157.91                   182.43                   188.99                   193.17                   195.00                   151.14                   166.26                   196.10                   203.73                   207.87                   209.59                   149.50                   164.81                   195.70                   203.72                   208.25                   210.03                   147.91                   162.52                   190.75                   198.04                   202.35                   203.95                   145.27                   158.59                   183.77                   190.47                   194.74                   196.59                   149.71                   163.93                   191.04                   198.08                   202.34                   204.18                   156.93                   173.47                   206.09                   214.61                   219.56                   221.59                   142.21                   155.63                   181.21                   187.92                   192.10                   193.94                   131.54                   144.98                   172.12                   179.50                   183.80                   185.49                   120.49                   130.26                   146.85                   150.37                   152.37                   153.31
20.000                   2.2500                   1.5000                   2000.0                   1000.0                   60.000                   158.70                   171.75                   196.60                   203.29                   207.56                   209.40                   164.66                   179.47                   208.54                   216.07                   220.32                   222.08                   163.00                   177.96                   207.85                   215.68                   220.22                   222.03                   161.39                   175.77                   203.59                   210.86                   215.23                   216.91                   158.99                   172.32                   197.70                   204.51                   208.84                   210.70                   163.49                   177.57                   204.51                   211.58                   215.91                   217.76                   170.51                   186.51                   217.87                   226.10                   230.97                   232.97                   155.17                   168.50                   194.05                   200.83                   205.07                   206.91                   142.95                   155.91                   181.86                   188.92                   193.10                   194.79                   131.22                   140.55                   156.42                   159.89                   161.90                   162.85
20.000                   2.2500                   1.5000                   2000.0                   1000.0                   65.000                   172.48                   185.59                   210.77                   217.59                   221.94                   223.81                   178.18                   192.68                   220.98                   228.41                   232.77                   234.57                   176.50                   191.11                   220.00                   227.64                   232.20                   234.04                   174.87                   189.03                   216.44                   223.68                   228.12                   229.86                   172.71                   186.05                   211.64                   218.54                   222.94                   224.82                   177.28                   191.22                   217.98                   225.08                   229.49                   231.35                   184.09                   199.56                   229.64                   237.58                   242.38                   244.35                   168.12                   181.37                   206.90                   213.73                   218.04                   219.89                   154.35                   166.85                   191.61                   198.33                   202.41                   204.09                   141.95                   150.84                   165.99                   169.42                   171.44                   172.40
20.000                   2.2500                   1.5000                   2000.0                   1000.0                   70.000                   186.25                   199.43                   224.94                   231.89                   236.33                   238.21                   191.70                   205.88                   233.41                   240.74                   245.22                   247.07                   190.00                   204.25                   232.15                   239.60                   244.17                   246.04                   188.35                   202.29                   229.28                   236.50                   241.00                   242.82                   186.43                   199.78                   225.58                   232.58                   237.05                   238.93                   191.07                   204.87                   231.45                   238.58                   243.06                   244.94                   197.67                   212.60                   241.42                   249.07                   253.78                   255.72                   181.07                   194.24                   219.75                   226.64                   231.01                   232.87                   165.75                   177.78                   201.35                   207.74                   211.71                   213.39                   152.68                   161.13                   175.56                   178.94                   180.98                   181.94
20.000                   2.2500                   1.5000                   2000.0                   1000.0                   75.000                   200.03                   213.27                   239.11                   246.19                   250.72                   252.61                   205.22                   219.09                   245.85                   253.08                   257.67                   259.56                   203.50                   217.40                   244.31                   251.56                   256.15                   258.05                   201.83                   215.54                   242.13                   249.32                   253.89                   255.78                   200.15                   213.51                   239.51                   246.61                   251.15                   253.05                   204.85                   218.51                   244.92                   252.08                   256.63                   258.53                   211.25                   225.65                   253.20                   260.55                   265.19                   267.10                   194.02                   207.11                   232.59                   239.54                   243.98                   245.85                   177.16                   188.72                   211.09                   217.16                   221.02                   222.69                   163.42                   171.42                   185.13                   188.46                   190.51                   191.48