% Model:              batchmodel_COIL_N_20_COIL_kr_3_COIL_kh_1_FUNZ_freq_10000_FUNZ_I_eff_1000.mph
% Version:            COMSOL 6.0.0.318
% Date:               Feb 9 2022, 03:06
% Table:              Tabella 1 - GRIGLIA_T
% COIL_N                 COIL_kr                  COIL_kh                  FUNZ_freq                FUNZ_I_eff               Time (s)                 Temperatura (degC), Point: (0, 0)Temperatura (degC), Point: (15, 0)Temperatura (degC), Point: (28.051, 0)Temperatura (degC), Point: (29.025, 0)Temperatura (degC), Point: (29.61, 0)Temperatura (degC), Point: (29.99, 0)Temperatura (degC), Point: (0, 62.5)Temperatura (degC), Point: (15, 62.5)Temperatura (degC), Point: (28.051, 62.5)Temperatura (degC), Point: (29.025, 62.5)Temperatura (degC), Point: (29.61, 62.5)Temperatura (degC), Point: (29.99, 62.5)Temperatura (degC), Point: (0, 125)Temperatura (degC), Point: (15, 125)Temperatura (degC), Point: (28.051, 125)Temperatura (degC), Point: (29.025, 125)Temperatura (degC), Point: (29.61, 125)Temperatura (degC), Point: (29.99, 125)Temperatura (degC), Point: (0, 187.5)Temperatura (degC), Point: (15, 187.5)Temperatura (degC), Point: (28.051, 187.5)Temperatura (degC), Point: (29.025, 187.5)Temperatura (degC), Point: (29.61, 187.5)Temperatura (degC), Point: (29.99, 187.5)Temperatura (degC), Point: (0, 250)Temperatura (degC), Point: (15, 250)Temperatura (degC), Point: (28.051, 250)Temperatura (degC), Point: (29.025, 250)Temperatura (degC), Point: (29.61, 250)Temperatura (degC), Point: (29.99, 250)Temperatura (degC), Point: (0, 312.5)Temperatura (degC), Point: (15, 312.5)Temperatura (degC), Point: (28.051, 312.5)Temperatura (degC), Point: (29.025, 312.5)Temperatura (degC), Point: (29.61, 312.5)Temperatura (degC), Point: (29.99, 312.5)Temperatura (degC), Point: (0, 375)Temperatura (degC), Point: (15, 375)Temperatura (degC), Point: (28.051, 375)Temperatura (degC), Point: (29.025, 375)Temperatura (degC), Point: (29.61, 375)Temperatura (degC), Point: (29.99, 375)Temperatura (degC), Point: (0, 437.5)Temperatura (degC), Point: (15, 437.5)Temperatura (degC), Point: (28.051, 437.5)Temperatura (degC), Point: (29.025, 437.5)Temperatura (degC), Point: (29.61, 437.5)Temperatura (degC), Point: (29.99, 437.5)Temperatura (degC), Point: (0, 468.75)Temperatura (degC), Point: (15, 468.75)Temperatura (degC), Point: (28.051, 468.75)Temperatura (degC), Point: (29.025, 468.75)Temperatura (degC), Point: (29.61, 468.75)Temperatura (degC), Point: (29.99, 468.75)Temperatura (degC), Point: (0, 492.19)Temperatura (degC), Point: (15, 492.19)Temperatura (degC), Point: (28.051, 492.19)Temperatura (degC), Point: (29.025, 492.19)Temperatura (degC), Point: (29.61, 492.19)Temperatura (degC), Point: (29.99, 492.19)
20.000                   3.0000                   1.0000                   10000                    1000.0                   0.0000                   20.000                   20.000                   20.000                   20.000                   20.012                   20.185                   20.000                   20.000                   20.000                   20.000                   20.013                   20.185                   20.000                   20.000                   20.000                   20.000                   20.013                   20.185                   20.000                   20.000                   20.000                   20.000                   20.013                   20.185                   20.000                   20.000                   20.000                   20.000                   20.013                   20.185                   20.000                   20.000                   20.000                   20.000                   20.012                   20.185                   20.000                   20.000                   20.000                   20.000                   20.012                   20.185                   20.000                   20.000                   20.000                   20.000                   20.012                   20.182                   20.000                   20.000                   20.000                   20.000                   20.011                   20.173                   20.000                   20.000                   20.000                   20.000                   20.007                   20.143
20.000                   3.0000                   1.0000                   10000                    1000.0                   5.0000                   22.248                   29.773                   72.686                   78.357                   81.950                   83.655                   22.227                   29.732                   72.519                   78.231                   81.786                   83.403                   22.212                   29.652                   71.874                   77.429                   80.933                   82.591                   22.203                   29.623                   71.955                   77.574                   81.125                   82.802                   22.229                   29.756                   72.891                   78.583                   82.205                   83.841                   22.207                   29.646                   71.977                   77.585                   81.133                   82.785                   22.216                   29.689                   72.238                   77.943                   81.541                   83.242                   22.200                   29.647                   72.818                   78.581                   82.125                   83.779                   22.088                   29.154                   69.355                   74.559                   77.674                   79.123                   22.505                   29.048                   61.917                   66.120                   68.601                   69.821
20.000                   3.0000                   1.0000                   10000                    1000.0                   10.000                   35.149                   51.225                   103.87                   109.16                   112.13                   113.66                   35.107                   51.181                   103.91                   109.66                   113.25                   114.86                   35.094                   51.260                   105.31                   111.21                   114.83                   116.51                   35.290                   51.705                   106.54                   112.54                   116.27                   118.00                   35.198                   51.478                   105.67                   111.70                   115.67                   117.30                   34.975                   50.911                   103.51                   109.18                   112.59                   114.15                   34.810                   50.501                   101.27                   106.69                   110.07                   111.69                   34.928                   51.019                   104.57                   110.25                   113.71                   115.37                   33.459                   47.551                   90.956                   95.061                   97.694                   98.920                   33.027                   45.349                   82.455                   85.962                   88.276                   89.536
20.000                   3.0000                   1.0000                   10000                    1000.0                   15.000                   56.141                   77.060                   136.19                   142.53                   146.53                   148.28                   56.092                   77.105                   137.00                   143.46                   147.46                   149.30                   56.045                   77.074                   136.84                   143.27                   147.27                   149.10                   56.566                   77.905                   138.25                   144.72                   148.73                   150.53                   56.289                   77.475                   137.86                   144.37                   148.47                   150.34                   55.821                   76.644                   135.53                   141.83                   145.79                   147.61                   55.386                   75.967                   134.78                   141.15                   145.06                   146.80                   55.455                   76.265                   135.78                   142.33                   146.36                   148.13                   51.906                   70.380                   124.74                   130.86                   134.64                   136.42                   50.125                   66.345                   109.32                   113.88                   116.56                   117.80
20.000                   3.0000                   1.0000                   10000                    1000.0                   20.000                   81.856                   105.13                   169.29                   176.01                   180.19                   182.01                   81.747                   105.04                   169.33                   176.16                   180.35                   182.25                   81.556                   104.74                   168.42                   175.11                   179.21                   181.07                   82.293                   105.72                   170.03                   176.83                   181.04                   182.89                   81.990                   105.38                   169.93                   176.79                   181.06                   182.92                   81.282                   104.31                   167.40                   174.09                   178.25                   180.08                   80.676                   103.52                   166.41                   173.09                   177.19                   178.92                   80.276                   103.19                   166.44                   173.20                   177.32                   179.12                   75.002                   95.869                   154.72                   161.09                   164.96                   166.72                   72.224                   90.346                   136.13                   140.87                   143.63                   144.89
20.000                   3.0000                   1.0000                   10000                    1000.0                   25.000                   108.59                   133.86                   202.59                   209.70                   214.06                   215.96                   108.37                   133.55                   201.79                   208.98                   213.39                   215.33                   108.02                   133.01                   200.43                   207.44                   211.73                   213.64                   108.93                   134.12                   202.17                   209.30                   213.72                   215.62                   108.67                   133.94                   202.47                   209.69                   214.14                   216.02                   107.76                   132.70                   200.19                   207.36                   211.79                   213.65                   107.00                   131.78                   199.13                   206.34                   210.76                   212.53                   106.00                   130.67                   197.48                   204.48                   208.75                   210.59                   99.171                   121.98                   184.67                   191.26                   195.24                   197.00                   95.309                   114.79                   162.65                   167.47                   170.32                   171.59
20.000                   3.0000                   1.0000                   10000                    1000.0                   30.000                   136.42                   163.34                   236.21                   243.74                   248.31                   250.29                   136.09                   162.84                   234.98                   242.59                   247.26                   249.23                   135.62                   162.17                   233.53                   240.97                   245.55                   247.52                   136.60                   163.31                   235.08                   242.58                   247.21                   249.17                   136.51                   163.41                   236.05                   243.69                   248.38                   250.31                   135.43                   162.01                   233.88                   241.58                   246.34                   248.26                   134.50                   160.92                   232.68                   240.43                   245.16                   247.03                   132.79                   158.97                   229.49                   236.84                   241.33                   243.22                   124.50                   148.84                   214.83                   221.68                   225.81                   227.58                   119.52                   140.05                   189.86                   194.82                   197.78                   199.07
20.000                   3.0000                   1.0000                   10000                    1000.0                   35.000                   165.23                   193.48                   270.21                   278.19                   283.00                   285.03                   164.82                   192.92                   269.10                   277.20                   282.18                   284.21                   164.29                   192.25                   267.88                   275.88                   280.82                   282.85                   165.24                   193.27                   268.83                   276.74                   281.61                   283.63                   165.46                   193.80                   270.77                   278.89                   283.89                   285.90                   164.20                   192.19                   268.27                   276.51                   281.62                   283.63                   163.09                   190.89                   266.64                   274.79                   279.76                   281.75                   160.59                   188.09                   262.58                   270.39                   275.14                   277.09                   150.88                   176.38                   245.17                   252.30                   256.62                   258.42                   144.78                   166.21                   218.20                   223.41                   226.49                   227.83
20.000                   3.0000                   1.0000                   10000                    1000.0                   40.000                   194.04                   223.63                   304.21                   312.63                   317.69                   319.78                   193.55                   223.00                   303.22                   311.82                   317.11                   319.18                   192.96                   222.32                   302.24                   310.78                   316.09                   318.18                   193.88                   223.23                   302.59                   310.90                   316.02                   318.09                   194.41                   224.19                   305.48                   314.10                   319.39                   321.49                   192.97                   222.38                   302.66                   311.44                   316.91                   319.01                   191.68                   220.87                   300.61                   309.15                   314.36                   316.48                   188.39                   217.21                   295.67                   303.94                   308.95                   310.97                   177.26                   203.93                   275.50                   282.91                   287.42                   289.26                   170.05                   192.37                   246.55                   251.99                   255.21                   256.60
20.000                   3.0000                   1.0000                   10000                    1000.0                   45.000                   222.91                   253.55                   337.25                   346.10                   351.39                   353.53                   222.58                   253.31                   337.59                   346.70                   352.32                   354.46                   221.93                   252.60                   336.81                   345.93                   351.64                   353.81                   222.80                   253.38                   336.55                   345.32                   350.69                   352.82                   223.56                   254.56                   339.42                   348.45                   354.02                   356.17                   221.90                   252.46                   336.23                   345.45                   351.20                   353.36                   220.42                   250.71                   333.43                   342.24                   347.61                   349.79                   216.37                   246.32                   327.95                   336.56                   341.80                   343.88                   203.69                   231.20                   304.72                   312.27                   316.86                   318.69                   195.40                   218.28                   273.24                   278.66                   281.87                   283.26
20.000                   3.0000                   1.0000                   10000                    1000.0                   50.000                   251.80                   283.43                   370.14                   379.42                   384.95                   387.14                   251.66                   283.64                   372.00                   381.62                   387.57                   389.78                   250.93                   282.90                   371.41                   381.12                   387.23                   389.47                   251.75                   283.55                   370.54                   379.76                   385.41                   387.59                   252.73                   284.93                   373.24                   382.68                   388.52                   390.71                   250.84                   282.53                   369.68                   379.32                   385.35                   387.56                   249.19                   280.55                   366.10                   375.15                   380.67                   382.89                   244.38                   275.43                   360.12                   369.06                   374.52                   376.67                   230.14                   258.43                   333.78                   341.46                   346.10                   347.92                   220.76                   244.16                   299.70                   305.06                   308.24                   309.64
20.000                   3.0000                   1.0000                   10000                    1000.0                   55.000                   280.22                   312.78                   402.29                   411.95                   417.70                   419.91                   280.25                   313.36                   405.33                   415.40                   421.64                   423.90                   279.48                   312.65                   405.12                   415.35                   421.80                   424.10                   280.36                   313.32                   404.03                   413.71                   419.63                   421.87                   281.39                   314.66                   406.09                   415.90                   421.98                   424.19                   279.25                   311.93                   402.08                   412.07                   418.33                   420.58                   277.58                   309.97                   398.40                   407.72                   413.41                   415.67                   271.65                   303.59                   390.62                   399.80                   405.41                   407.59                   255.78                   284.66                   361.25                   369.00                   373.66                   375.45                   245.39                   269.19                   325.22                   330.54                   333.68                   335.08
20.000                   3.0000                   1.0000                   10000                    1000.0                   60.000                   307.72                   341.07                   432.95                   442.91                   448.83                   451.05                   307.87                   341.88                   436.56                   446.94                   453.39                   455.66                   307.15                   341.30                   437.08                   447.71                   454.40                   456.70                   308.28                   342.30                   436.56                   446.70                   452.89                   455.16                   309.07                   343.17                   437.03                   447.12                   453.38                   455.60                   306.61                   340.03                   432.40                   442.63                   449.01                   451.26                   305.26                   338.62                   430.00                   439.64                   445.51                   447.79                   297.49                   329.87                   417.85                   427.09                   432.72                   434.88                   279.87                   308.94                   385.60                   393.30                   397.92                   399.66                   268.61                   292.56                   348.89                   354.20                   357.33                   358.72
20.000                   3.0000                   1.0000                   10000                    1000.0                   65.000                   335.23                   369.36                   463.61                   473.88                   479.97                   482.19                   335.50                   370.40                   467.79                   478.48                   485.14                   487.42                   334.82                   369.96                   469.04                   480.07                   486.99                   489.31                   336.20                   371.28                   469.08                   479.69                   486.15                   488.46                   336.75                   371.67                   467.96                   478.35                   484.79                   487.02                   333.96                   368.14                   462.72                   473.18                   479.70                   481.94                   332.94                   367.26                   461.60                   471.55                   477.61                   479.91                   323.33                   356.16                   445.08                   454.37                   460.02                   462.17                   303.95                   333.21                   409.96                   417.60                   422.17                   423.87                   291.83                   315.92                   372.56                   377.87                   380.97                   382.36
20.000                   3.0000                   1.0000                   10000                    1000.0                   70.000                   362.74                   397.65                   494.27                   504.84                   511.11                   513.33                   363.13                   398.92                   499.01                   510.03                   516.90                   519.17                   362.49                   398.62                   501.00                   512.43                   519.58                   521.92                   364.12                   400.26                   501.60                   512.68                   519.42                   521.76                   364.43                   400.18                   498.90                   509.58                   516.20                   518.43                   361.32                   396.24                   493.05                   503.74                   510.38                   512.62                   360.62                   395.91                   493.20                   503.47                   509.71                   512.03                   349.17                   382.44                   472.31                   481.66                   487.32                   489.47                   328.04                   357.49                   434.31                   441.90                   446.43                   448.08                   315.04                   339.28                   396.23                   401.53                   404.62                   406.00
20.000                   3.0000                   1.0000                   10000                    1000.0                   75.000                   390.25                   425.95                   524.94                   535.81                   542.25                   544.47                   390.75                   427.43                   530.24                   541.57                   548.65                   550.93                   390.16                   427.28                   532.96                   544.79                   552.18                   554.52                   392.04                   429.24                   534.12                   545.67                   552.68                   555.05                   392.11                   428.68                   529.84                   540.81                   547.60                   549.85                   388.68                   424.34                   523.37                   534.30                   541.06                   543.30                   388.30                   424.55                   524.80                   535.38                   541.81                   544.15                   375.01                   408.73                   499.54                   508.95                   514.63                   516.76                   352.12                   381.76                   458.67                   466.21                   470.68                   472.29                   338.26                   362.64                   419.89                   425.19                   428.26                   429.64