% Model:              batchmodel_COIL_N_20_COIL_kr_1.5_COIL_kh_1_FUNZ_freq_2000_FUNZ_I_eff_2500.mph
% Version:            COMSOL 6.0.0.318
% Date:               Feb 9 2022, 00:24
% Table:              Tabella 1 - GRIGLIA_T
% COIL_N                 COIL_kr                  COIL_kh                  FUNZ_freq                FUNZ_I_eff               Time (s)                 Temperatura (degC), Point: (0, 0)Temperatura (degC), Point: (15, 0)Temperatura (degC), Point: (25.641, 0)Temperatura (degC), Point: (27.821, 0)Temperatura (degC), Point: (29.128, 0)Temperatura (degC), Point: (29.99, 0)Temperatura (degC), Point: (0, 62.5)Temperatura (degC), Point: (15, 62.5)Temperatura (degC), Point: (25.641, 62.5)Temperatura (degC), Point: (27.821, 62.5)Temperatura (degC), Point: (29.128, 62.5)Temperatura (degC), Point: (29.99, 62.5)Temperatura (degC), Point: (0, 125)Temperatura (degC), Point: (15, 125)Temperatura (degC), Point: (25.641, 125)Temperatura (degC), Point: (27.821, 125)Temperatura (degC), Point: (29.128, 125)Temperatura (degC), Point: (29.99, 125)Temperatura (degC), Point: (0, 187.5)Temperatura (degC), Point: (15, 187.5)Temperatura (degC), Point: (25.641, 187.5)Temperatura (degC), Point: (27.821, 187.5)Temperatura (degC), Point: (29.128, 187.5)Temperatura (degC), Point: (29.99, 187.5)Temperatura (degC), Point: (0, 250)Temperatura (degC), Point: (15, 250)Temperatura (degC), Point: (25.641, 250)Temperatura (degC), Point: (27.821, 250)Temperatura (degC), Point: (29.128, 250)Temperatura (degC), Point: (29.99, 250)Temperatura (degC), Point: (0, 312.5)Temperatura (degC), Point: (15, 312.5)Temperatura (degC), Point: (25.641, 312.5)Temperatura (degC), Point: (27.821, 312.5)Temperatura (degC), Point: (29.128, 312.5)Temperatura (degC), Point: (29.99, 312.5)Temperatura (degC), Point: (0, 375)Temperatura (degC), Point: (15, 375)Temperatura (degC), Point: (25.641, 375)Temperatura (degC), Point: (27.821, 375)Temperatura (degC), Point: (29.128, 375)Temperatura (degC), Point: (29.99, 375)Temperatura (degC), Point: (0, 437.5)Temperatura (degC), Point: (15, 437.5)Temperatura (degC), Point: (25.641, 437.5)Temperatura (degC), Point: (27.821, 437.5)Temperatura (degC), Point: (29.128, 437.5)Temperatura (degC), Point: (29.99, 437.5)Temperatura (degC), Point: (0, 468.75)Temperatura (degC), Point: (15, 468.75)Temperatura (degC), Point: (25.641, 468.75)Temperatura (degC), Point: (27.821, 468.75)Temperatura (degC), Point: (29.128, 468.75)Temperatura (degC), Point: (29.99, 468.75)Temperatura (degC), Point: (0, 492.19)Temperatura (degC), Point: (15, 492.19)Temperatura (degC), Point: (25.641, 492.19)Temperatura (degC), Point: (27.821, 492.19)Temperatura (degC), Point: (29.128, 492.19)Temperatura (degC), Point: (29.99, 492.19)
20.000                   1.5000                   1.0000                   2000.0                   2500.0                   0.0000                   20.000                   20.000                   20.000                   20.000                   20.011                   20.090                   20.000                   20.000                   20.000                   20.000                   20.013                   20.097                   20.000                   20.000                   20.000                   20.000                   20.015                   20.110                   20.000                   20.000                   20.000                   20.000                   20.015                   20.107                   20.000                   20.000                   20.000                   20.000                   20.012                   20.094                   20.000                   20.000                   20.000                   20.000                   20.011                   20.091                   20.000                   20.000                   20.000                   20.000                   20.013                   20.101                   20.000                   20.000                   20.000                   20.000                   20.015                   20.111                   20.000                   20.000                   20.000                   20.000                   20.011                   20.092                   20.000                   20.000                   20.000                   20.000                   20.012                   20.099
20.000                   1.5000                   1.0000                   2000.0                   2500.0                   5.0000                   24.082                   37.954                   95.517                   116.68                   130.80                   136.17                   24.194                   38.667                   99.467                   122.03                   137.10                   142.76                   24.360                   39.743                   105.56                   130.36                   146.95                   153.07                   24.327                   39.526                   104.31                   128.64                   144.92                   150.95                   24.143                   38.349                   97.699                   119.63                   134.27                   139.80                   24.090                   38.007                   95.824                   117.10                   131.29                   136.68                   24.246                   39.003                   101.37                   124.63                   140.16                   145.97                   24.371                   39.829                   106.08                   131.09                   147.82                   153.98                   24.005                   37.722                   94.987                   116.10                   130.19                   135.56                   24.357                   38.326                   93.501                   113.70                   127.24                   132.45
20.000                   1.5000                   1.0000                   2000.0                   2500.0                   10.000                   47.887                   81.979                   164.71                   190.07                   206.25                   212.03                   48.374                   83.504                   169.81                   196.60                   213.70                   219.75                   49.096                   85.777                   177.59                   206.69                   225.29                   231.75                   48.949                   85.316                   175.99                   204.60                   222.88                   229.26                   48.154                   82.823                   167.53                   193.68                   210.37                   216.29                   47.919                   82.087                   165.10                   190.57                   206.82                   212.62                   48.590                   84.200                   172.21                   199.70                   217.26                   223.43                   49.108                   85.890                   178.13                   207.43                   226.16                   232.67                   47.171                   80.610                   162.25                   187.37                   203.44                   209.20                   47.482                   80.179                   156.85                   180.15                   195.11                   200.57
20.000                   1.5000                   1.0000                   2000.0                   2500.0                   15.000                   90.125                   135.57                   231.76                   260.59                   278.66                   284.74                   90.942                   137.41                   237.09                   267.38                   286.37                   292.71                   92.152                   140.16                   245.32                   278.01                   298.52                   305.29                   91.904                   139.60                   243.62                   275.80                   295.99                   302.68                   90.570                   136.58                   234.70                   264.33                   282.91                   289.14                   90.171                   135.69                   232.14                   261.09                   279.23                   285.34                   91.289                   138.23                   239.58                   270.59                   290.04                   296.52                   92.078                   140.15                   245.67                   278.55                   299.19                   305.99                   88.046                   132.36                   226.71                   255.10                   272.94                   278.99                   87.296                   129.71                   216.32                   241.90                   258.07                   263.68
20.000                   1.5000                   1.0000                   2000.0                   2500.0                   20.000                   141.70                   192.34                   300.56                   333.34                   353.55                   360.02                   142.63                   194.23                   306.08                   340.46                   361.63                   368.37                   144.00                   197.07                   314.61                   351.57                   374.25                   381.41                   143.72                   196.49                   312.84                   349.24                   371.61                   378.67                   142.20                   193.37                   303.61                   337.28                   358.04                   364.66                   141.74                   192.44                   300.93                   333.83                   354.12                   360.61                   143.00                   195.05                   308.64                   343.81                   365.44                   372.32                   143.72                   196.81                   314.65                   351.77                   374.57                   381.76                   137.75                   186.92                   292.56                   324.63                   344.50                   350.91                   135.19                   181.54                   276.60                   304.82                   322.45                   328.29
20.000                   1.5000                   1.0000                   2000.0                   2500.0                   25.000                   195.85                   250.31                   370.69                   407.41                   429.60                   436.26                   196.75                   252.22                   376.39                   414.75                   437.71                   444.61                   198.07                   255.07                   385.23                   426.26                   450.75                   458.04                   197.80                   254.48                   383.42                   423.91                   448.12                   455.32                   196.33                   251.35                   373.87                   411.51                   434.24                   441.02                   195.88                   250.41                   371.08                   407.94                   430.21                   436.89                   197.07                   253.01                   379.05                   418.22                   441.67                   448.70                   197.47                   254.47                   384.86                   426.05                   450.64                   457.95                   189.79                   242.54                   359.53                   395.28                   417.00                   423.60                   185.15                   234.30                   337.87                   368.66                   387.54                   393.51
20.000                   1.5000                   1.0000                   2000.0                   2500.0                   30.000                   250.00                   308.32                   438.27                   477.83                   501.18                   507.85                   250.86                   310.19                   443.83                   485.05                   509.07                   515.88                   252.12                   312.92                   451.76                   494.97                   519.89                   527.02                   251.85                   312.33                   449.84                   492.43                   517.00                   524.07                   250.46                   309.36                   441.51                   482.11                   506.05                   512.78                   250.03                   308.48                   438.99                   478.87                   502.42                   509.12                   251.12                   310.86                   445.75                   487.14                   511.16                   518.07                   251.15                   311.91                   450.89                   494.24                   519.23                   526.39                   241.90                   298.34                   424.69                   463.30                   486.24                   492.87                   235.24                   287.24                   397.23                   429.71                   449.20                   455.13
20.000                   1.5000                   1.0000                   2000.0                   2500.0                   35.000                   302.93                   364.63                   501.62                   543.21                   567.15                   573.79                   303.78                   366.45                   507.12                   550.52                   575.12                   581.75                   304.97                   368.96                   513.76                   558.31                   582.81                   589.67                   304.67                   368.32                   511.69                   555.54                   579.77                   586.59                   303.38                   365.63                   504.80                   547.57                   572.12                   578.73                   303.00                   364.88                   502.68                   544.75                   568.98                   575.66                   303.96                   366.94                   508.21                   551.21                   575.15                   581.87                   303.59                   367.51                   512.32                   556.98                   581.52                   588.41                   293.05                   352.86                   486.59                   527.51                   551.23                   557.85                   284.54                   339.10                   453.80                   487.55                   507.41                   513.25
20.000                   1.5000                   1.0000                   2000.0                   2500.0                   40.000                   354.79                   419.63                   563.95                   608.16                   633.04                   639.73                   355.64                   421.41                   569.42                   615.55                   641.08                   647.69                   356.76                   423.69                   575.16                   622.04                   646.87                   653.63                   356.44                   423.01                   573.02                   619.21                   643.89                   650.62                   355.23                   420.58                   566.97                   612.42                   637.84                   644.47                   354.91                   419.94                   565.13                   609.89                   635.06                   641.78                   355.73                   421.72                   570.08                   615.71                   640.26                   646.93                   355.01                   421.85                   573.28                   620.24                   645.10                   651.88                   343.37                   406.40                   547.98                   591.80                   616.65                   623.36                   333.17                   390.22                   510.29                   545.89                   566.52                   572.35
20.000                   1.5000                   1.0000                   2000.0                   2500.0                   45.000                   404.24                   472.27                   627.45                   677.61                   705.24                   712.25                   405.05                   473.92                   632.25                   683.96                   712.30                   719.40                   406.09                   476.01                   638.00                   691.21                   720.09                   727.45                   405.75                   475.36                   636.21                   688.96                   717.51                   724.79                   404.66                   473.14                   630.06                   681.12                   709.22                   716.28                   404.38                   472.57                   628.29                   678.70                   706.46                   713.49                   405.09                   474.17                   633.32                   685.31                   713.57                   720.73                   404.10                   474.02                   636.32                   689.74                   718.71                   726.09                   391.95                   458.49                   612.03                   661.96                   689.77                   696.92                   380.56                   440.58                   570.44                   610.46                   633.37                   639.53
20.000                   1.5000                   1.0000                   2000.0                   2500.0                   50.000                   451.33                   521.64                   682.69                   737.71                   768.43                   775.81                   452.14                   523.30                   688.01                   745.49                   777.28                   784.86                   453.15                   525.43                   695.37                   756.50                   789.94                   797.85                   452.80                   524.78                   693.43                   753.78                   786.76                   794.58                   451.74                   522.52                   685.56                   741.90                   773.21                   780.70                   451.48                   521.94                   683.41                   738.66                   769.48                   776.87                   452.14                   523.57                   689.72                   748.27                   780.56                   788.22                   450.97                   523.32                   693.64                   754.83                   788.36                   796.30                   438.28                   507.24                   666.18                   719.23                   749.05                   756.43                   426.00                   488.39                   623.74                   666.12                   690.01                   696.15
20.000                   1.5000                   1.0000                   2000.0                   2500.0                   55.000                   496.67                   568.55                   734.04                   793.97                   827.62                   835.26                   497.49                   570.30                   740.78                   804.47                   839.58                   847.45                   498.52                   572.62                   750.89                   820.63                   858.16                   866.41                   498.16                   571.95                   748.45                   816.91                   853.92                   862.08                   497.09                   569.47                   737.68                   799.60                   834.01                   841.77                   496.83                   568.83                   734.80                   795.07                   828.83                   836.48                   497.49                   570.64                   743.32                   808.76                   844.67                   852.65                   496.17                   570.40                   748.92                   818.50                   856.11                   864.40                   482.88                   553.42                   714.77                   770.31                   801.68                   809.14                   469.86                   533.95                   671.56                   714.95                   739.14                   745.10
20.000                   1.5000                   1.0000                   2000.0                   2500.0                   60.000                   539.14                   611.22                   787.84                   856.13                   890.79                   897.95                   540.02                   613.19                   797.39                   869.27                   905.05                   912.33                   541.13                   615.88                   812.01                   889.61                   927.15                   934.60                   540.76                   615.14                   808.59                   884.96                   922.18                   929.61                   539.59                   612.27                   793.03                   863.27                   898.54                   905.76                   539.30                   611.50                   788.81                   857.41                   892.16                   899.32                   540.04                   613.65                   801.19                   874.76                   911.14                   918.49                   538.64                   613.54                   809.43                   887.08                   924.79                   932.32                   524.52                   595.05                   761.25                   824.48                   857.65                   864.88                   510.72                   574.53                   708.90                   751.89                   776.47                   782.30
20.000                   1.5000                   1.0000                   2000.0                   2500.0                   65.000                   578.57                   650.10                   839.10                   908.35                   941.19                   947.37                   580.19                   653.86                   852.49                   921.61                   953.65                   959.49                   580.69                   655.37                   868.59                   946.10                   981.06                   987.25                   580.63                   655.75                   873.77                   951.51                   985.66                   991.48                   579.04                   651.24                   844.88                   915.65                   948.91                   955.10                   578.76                   650.28                   838.30                   906.99                   939.60                   945.74                   579.57                   652.94                   855.63                   929.54                   963.69                   969.91                   578.15                   653.12                   866.96                   945.15                   980.44                   986.71                   563.15                   632.69                   805.38                   870.50                   902.79                   909.29                   548.49                   610.52                   740.28                   783.35                   807.52                   812.95
20.000                   1.5000                   1.0000                   2000.0                   2500.0                   70.000                   616.15                   686.63                   887.81                   953.02                   982.20                   987.08                   618.93                   693.09                   906.24                   965.90                   991.34                   995.19                   618.41                   692.52                   921.51                   993.88                   1024.4                   1029.0                   618.87                   694.76                   945.18                   1020.6                   1048.2                   1051.4                   616.67                   687.84                   893.34                   959.24                   988.51                   993.33                   616.40                   686.65                   883.44                   946.18                   974.36                   979.09                   617.28                   689.91                   906.76                   975.70                   1005.7                   1010.5                   615.88                   690.46                   921.85                   995.87                   1027.0                   1031.6                   599.97                   667.90                   847.33                   910.27                   939.86                   945.28                   584.42                   643.79                   768.11                   810.95                   833.87                   838.67
20.000                   1.5000                   1.0000                   2000.0                   2500.0                   75.000                   650.26                   718.05                   917.51                   970.58                   993.88                   997.29                   654.82                   728.79                   950.00                   996.15                   1013.3                   1014.8                   652.63                   724.80                   959.48                   1021.9                   1045.5                   1048.0                   654.24                   732.64                   1031.3                   1086.3                   1099.0                   1097.8                   650.81                   719.21                   918.87                   970.08                   992.40                   995.59                   650.62                   717.65                   903.97                   950.53                   971.02                   973.98                   651.57                   722.18                   939.10                   993.47                   1015.9                   1018.7                   650.23                   723.31                   967.22                   1033.4                   1056.9                   1059.0                   633.37                   698.44                   875.12                   928.57                   953.13                   957.24                   616.90                   672.59                   789.39                   827.03                   846.27                   850.02