% Model:              batchmodel_COIL_N_20_COIL_kr_2.25_COIL_kh_1.5_FUNZ_freq_2000_FUNZ_I_eff_4000.mph
% Version:            COMSOL 6.0.0.318
% Date:               Feb 9 2022, 02:35
% Table:              Tabella 1 - GRIGLIA_T
% COIL_N                 COIL_kr                  COIL_kh                  FUNZ_freq                FUNZ_I_eff               Time (s)                 Temperatura (degC), Point: (0, 0)Temperatura (degC), Point: (15, 0)Temperatura (degC), Point: (25.641, 0)Temperatura (degC), Point: (27.821, 0)Temperatura (degC), Point: (29.128, 0)Temperatura (degC), Point: (29.99, 0)Temperatura (degC), Point: (0, 62.5)Temperatura (degC), Point: (15, 62.5)Temperatura (degC), Point: (25.641, 62.5)Temperatura (degC), Point: (27.821, 62.5)Temperatura (degC), Point: (29.128, 62.5)Temperatura (degC), Point: (29.99, 62.5)Temperatura (degC), Point: (0, 125)Temperatura (degC), Point: (15, 125)Temperatura (degC), Point: (25.641, 125)Temperatura (degC), Point: (27.821, 125)Temperatura (degC), Point: (29.128, 125)Temperatura (degC), Point: (29.99, 125)Temperatura (degC), Point: (0, 187.5)Temperatura (degC), Point: (15, 187.5)Temperatura (degC), Point: (25.641, 187.5)Temperatura (degC), Point: (27.821, 187.5)Temperatura (degC), Point: (29.128, 187.5)Temperatura (degC), Point: (29.99, 187.5)Temperatura (degC), Point: (0, 250)Temperatura (degC), Point: (15, 250)Temperatura (degC), Point: (25.641, 250)Temperatura (degC), Point: (27.821, 250)Temperatura (degC), Point: (29.128, 250)Temperatura (degC), Point: (29.99, 250)Temperatura (degC), Point: (0, 312.5)Temperatura (degC), Point: (15, 312.5)Temperatura (degC), Point: (25.641, 312.5)Temperatura (degC), Point: (27.821, 312.5)Temperatura (degC), Point: (29.128, 312.5)Temperatura (degC), Point: (29.99, 312.5)Temperatura (degC), Point: (0, 375)Temperatura (degC), Point: (15, 375)Temperatura (degC), Point: (25.641, 375)Temperatura (degC), Point: (27.821, 375)Temperatura (degC), Point: (29.128, 375)Temperatura (degC), Point: (29.99, 375)Temperatura (degC), Point: (0, 437.5)Temperatura (degC), Point: (15, 437.5)Temperatura (degC), Point: (25.641, 437.5)Temperatura (degC), Point: (27.821, 437.5)Temperatura (degC), Point: (29.128, 437.5)Temperatura (degC), Point: (29.99, 437.5)Temperatura (degC), Point: (0, 468.75)Temperatura (degC), Point: (15, 468.75)Temperatura (degC), Point: (25.641, 468.75)Temperatura (degC), Point: (27.821, 468.75)Temperatura (degC), Point: (29.128, 468.75)Temperatura (degC), Point: (29.99, 468.75)Temperatura (degC), Point: (0, 492.19)Temperatura (degC), Point: (15, 492.19)Temperatura (degC), Point: (25.641, 492.19)Temperatura (degC), Point: (27.821, 492.19)Temperatura (degC), Point: (29.128, 492.19)Temperatura (degC), Point: (29.99, 492.19)
20.000                   2.2500                   1.5000                   2000.0                   4000.0                   0.0000                   20.000                   20.000                   20.000                   20.000                   20.064                   20.226                   20.000                   20.000                   20.000                   20.000                   20.064                   20.227                   20.000                   20.000                   20.000                   20.000                   20.065                   20.228                   20.000                   20.000                   20.000                   20.000                   20.065                   20.228                   20.000                   20.000                   20.000                   20.000                   20.064                   20.226                   20.000                   20.000                   20.000                   20.000                   20.064                   20.226                   20.000                   20.000                   20.000                   20.000                   20.065                   20.228                   20.000                   20.000                   20.000                   20.000                   20.065                   20.228                   20.000                   20.000                   20.000                   20.000                   20.061                   20.220                   20.000                   20.000                   20.000                   20.000                   20.043                   20.179
20.000                   2.2500                   1.5000                   2000.0                   4000.0                   5.0000                   28.010                   59.863                   191.85                   246.10                   280.71                   291.68                   28.043                   60.226                   195.24                   249.98                   285.02                   295.89                   28.027                   60.154                   194.11                   247.93                   282.43                   293.37                   28.027                   60.174                   194.61                   248.73                   283.54                   294.58                   28.039                   60.118                   193.61                   248.04                   283.49                   294.40                   27.987                   59.855                   192.15                   245.51                   279.67                   290.48                   28.051                   60.239                   194.65                   249.05                   284.07                   295.00                   27.982                   59.853                   192.41                   246.21                   280.32                   290.97                   27.352                   56.919                   180.12                   230.51                   263.55                   273.85                   26.782                   51.654                   144.08                   178.63                   201.70                   209.66
20.000                   2.2500                   1.5000                   2000.0                   4000.0                   10.000                   85.426                   159.28                   364.94                   439.88                   482.62                   494.47                   85.735                   160.03                   366.71                   441.96                   484.69                   496.54                   85.482                   159.62                   366.36                   441.77                   484.60                   496.48                   85.571                   159.69                   366.17                   441.46                   484.22                   496.08                   85.597                   159.65                   365.75                   440.82                   483.48                   495.32                   85.334                   159.14                   364.69                   439.66                   482.29                   494.13                   85.658                   159.85                   366.51                   441.88                   484.69                   496.56                   84.638                   157.77                   361.04                   434.96                   477.13                   488.87                   79.512                   146.87                   331.08                   396.71                   435.04                   446.04                   73.441                   128.66                   262.67                   306.05                   332.58                   340.90
20.000                   2.2500                   1.5000                   2000.0                   4000.0                   15.000                   172.79                   270.33                   527.02                   618.02                   667.06                   679.52                   173.19                   270.98                   528.47                   620.79                   669.14                   681.40                   172.78                   270.50                   527.90                   620.00                   668.51                   680.85                   172.93                   270.63                   528.21                   620.67                   669.10                   681.38                   172.98                   270.61                   527.71                   619.88                   668.29                   680.58                   172.64                   270.17                   527.24                   619.57                   667.90                   680.16                   173.04                   270.76                   528.14                   620.39                   668.85                   681.15                   170.51                   266.83                   519.86                   610.27                   658.36                   670.67                   158.74                   246.82                   473.86                   553.51                   596.74                   608.31                   144.30                   215.80                   376.77                   427.62                   457.19                   465.86
20.000                   2.2500                   1.5000                   2000.0                   4000.0                   20.000                   266.58                   378.06                   666.33                   773.71                   832.72                   846.48                   266.93                   378.56                   667.48                   776.72                   835.01                   848.58                   266.47                   378.03                   666.42                   774.39                   832.60                   846.25                   266.65                   378.25                   667.39                   776.84                   835.25                   848.85                   266.71                   378.20                   666.58                   775.20                   833.53                   847.14                   266.40                   377.89                   666.38                   775.01                   833.11                   846.67                   266.73                   378.26                   666.49                   774.76                   832.88                   846.47                   262.65                   372.56                   654.88                   757.85                   814.10                   827.61                   244.55                   345.25                   600.18                   688.76                   733.54                   744.80                   222.68                   304.18                   485.48                   542.46                   574.24                   582.99
20.000                   2.2500                   1.5000                   2000.0                   4000.0                   25.000                   357.77                   476.87                   802.36                   942.29                   1002.1                   1013.4                   358.04                   477.28                   804.43                   945.01                   1004.4                   1015.7                   357.57                   476.72                   803.23                   943.60                   1003.1                   1014.4                   357.79                   476.99                   804.15                   944.80                   1004.3                   1015.5                   357.81                   476.85                   802.38                   942.33                   1001.8                   1013.1                   357.57                   476.66                   802.12                   941.98                   1001.5                   1012.8                   357.79                   476.88                   802.99                   943.27                   1002.7                   1014.0                   352.20                   469.42                   783.77                   920.00                   980.13                   992.00                   328.63                   435.45                   700.10                   798.82                   852.02                   864.22                   301.15                   387.98                   578.20                   636.98                   668.91                   677.14
20.000                   2.2500                   1.5000                   2000.0                   4000.0                   30.000                   442.69                   565.23                   907.25                   1013.4                   1051.0                   1055.9                   442.98                   566.83                   951.60                   1067.2                   1099.2                   1101.6                   442.56                   566.80                   963.98                   1079.4                   1109.9                   1111.8                   442.76                   566.66                   954.72                   1070.5                   1102.1                   1104.4                   442.63                   565.11                   909.39                   1017.1                   1054.8                   1059.6                   442.48                   565.15                   915.39                   1025.8                   1062.9                   1067.3                   442.67                   566.07                   941.67                   1057.5                   1091.1                   1093.9                   435.78                   557.25                   922.45                   1043.2                   1081.4                   1085.6                   407.47                   515.26                   777.76                   877.62                   924.43                   933.88                   375.75                   463.10                   642.30                   693.08                   720.03                   726.67
20.000                   2.2500                   1.5000                   2000.0                   4000.0                   35.000                   517.10                   635.70                   935.93                   1003.3                   1027.5                   1030.3                   518.22                   643.46                   1044.5                   1115.9                   1130.4                   1129.0                   518.30                   646.54                   1074.5                   1141.0                   1153.4                   1151.4                   518.11                   644.04                   1052.9                   1123.0                   1136.9                   1135.3                   516.89                   635.43                   937.97                   1006.8                   1031.3                   1033.9                   516.89                   636.40                   958.45                   1033.5                   1056.4                   1058.0                   517.52                   640.82                   1023.8                   1099.1                   1115.5                   1114.6                   510.00                   634.11                   1039.9                   1119.4                   1136.4                   1135.3                   475.67                   579.33                   830.98                   918.59                   957.61                   964.92                   440.79                   523.47                   683.06                   726.53                   750.00                   755.63
20.000                   2.2500                   1.5000                   2000.0                   4000.0                   40.000                   581.71                   691.46                   959.26                   1008.6                   1025.8                   1027.0                   584.60                   707.72                   1083.9                   1127.1                   1134.5                   1131.8                   585.78                   716.01                   1120.4                   1157.4                   1162.5                   1159.1                   584.71                   709.66                   1095.2                   1136.4                   1143.0                   1140.1                   581.28                   690.84                   959.26                   1009.6                   1027.1                   1028.4                   581.50                   692.99                   984.25                   1038.8                   1054.5                   1054.7                   582.99                   702.16                   1062.4                   1110.6                   1119.9                   1117.7                   576.36                   702.07                   1103.7                   1147.6                   1154.8                   1151.8                   534.34                   630.92                   873.04                   950.94                   984.99                   990.90                   496.41                   572.86                   715.96                   755.89                   778.14                   783.29
20.000                   2.2500                   1.5000                   2000.0                   4000.0                   45.000                   636.06                   737.25                   991.90                   1031.6                   1043.2                   1042.9                   640.90                   763.63                   1102.1                   1130.7                   1134.3                   1130.9                   643.43                   780.09                   1138.7                   1161.6                   1163.1                   1159.0                   641.32                   767.52                   1112.9                   1139.7                   1142.5                   1138.9                   635.36                   736.03                   989.03                   1029.4                   1041.5                   1041.4                   635.77                   739.18                   1011.4                   1052.8                   1063.4                   1062.5                   638.18                   754.00                   1084.0                   1117.1                   1122.3                   1119.4                   633.93                   764.29                   1130.8                   1157.3                   1159.8                   1156.0                   584.79                   673.86                   906.53                   973.92                   1003.1                   1007.6                   544.69                   614.27                   744.52                   783.53                   805.25                   810.01
20.000                   2.2500                   1.5000                   2000.0                   4000.0                   50.000                   680.97                   782.14                   1032.0                   1063.3                   1069.9                   1067.9                   687.20                   819.71                   1111.2                   1130.8                   1132.1                   1128.3                   690.81                   844.52                   1143.8                   1158.7                   1158.2                   1153.8                   687.85                   825.47                   1119.8                   1137.9                   1138.5                   1134.6                   680.05                   779.79                   1026.2                   1058.3                   1065.5                   1063.8                   680.56                   783.68                   1039.7                   1070.7                   1077.2                   1075.2                   683.62                   805.11                   1097.5                   1120.8                   1123.3                   1119.9                   682.39                   828.91                   1141.3                   1157.7                   1157.6                   1153.3                   628.30                   710.85                   937.04                   993.97                   1017.6                   1020.8                   586.96                   649.88                   770.85                   809.52                   830.23                   834.49
20.000                   2.2500                   1.5000                   2000.0                   4000.0                   55.000                   716.84                   834.07                   1067.4                   1088.7                   1091.4                   1088.4                   723.18                   875.62                   1117.5                   1130.9                   1130.5                   1126.4                   727.17                   903.19                   1144.0                   1153.8                   1152.0                   1147.5                   723.90                   881.90                   1124.1                   1136.4                   1135.5                   1131.3                   715.84                   830.12                   1062.1                   1084.5                   1087.8                   1084.9                   716.34                   833.64                   1067.3                   1089.2                   1092.3                   1089.3                   719.47                   858.16                   1106.9                   1123.2                   1123.7                   1119.9                   720.98                   893.09                   1146.2                   1156.5                   1154.7                   1150.2                   666.43                   744.34                   973.75                   1023.6                   1041.2                   1042.4                   624.28                   681.03                   796.36                   833.72                   852.99                   856.72
20.000                   2.2500                   1.5000                   2000.0                   4000.0                   60.000                   746.95                   887.04                   1093.7                   1107.6                   1107.7                   1103.9                   755.85                   925.36                   1123.3                   1132.2                   1130.5                   1126.3                   762.23                   951.35                   1143.0                   1149.4                   1146.8                   1142.2                   756.91                   931.13                   1128.0                   1136.1                   1134.2                   1129.8                   745.54                   882.02                   1089.5                   1104.3                   1104.8                   1101.2                   746.09                   884.18                   1090.3                   1105.0                   1105.5                   1101.9                   750.12                   907.08                   1115.1                   1126.1                   1125.3                   1121.2                   756.31                   947.81                   1148.7                   1154.9                   1152.1                   1147.4                   698.12                   780.76                   1015.9                   1056.5                   1068.0                   1067.4                   656.23                   707.12                   820.34                   855.69                   873.54                   876.76
20.000                   2.2500                   1.5000                   2000.0                   4000.0                   65.000                   779.41                   939.22                   1112.7                   1121.1                   1119.5                   1115.3                   792.78                   969.69                   1128.9                   1134.7                   1132.2                   1127.7                   802.52                   990.98                   1142.1                   1146.3                   1143.2                   1138.5                   794.30                   974.23                   1131.9                   1137.3                   1134.6                   1130.1                   777.01                   933.72                   1109.7                   1118.8                   1117.5                   1113.4                   777.57                   934.16                   1109.0                   1118.2                   1117.0                   1112.9                   783.10                   952.20                   1122.5                   1129.9                   1127.9                   1123.6                   796.83                   994.16                   1150.1                   1153.7                   1150.4                   1145.6                   724.12                   820.82                   1057.4                   1088.3                   1094.4                   1092.2                   683.08                   728.90                   842.78                   875.69                   892.10                   894.83
20.000                   2.2500                   1.5000                   2000.0                   4000.0                   70.000                   825.57                   987.18                   1126.1                   1130.8                   1128.2                   1123.7                   844.68                   1008.8                   1135.3                   1138.6                   1135.5                   1130.8                   857.47                   1024.2                   1143.4                   1145.9                   1142.4                   1137.6                   846.60                   1011.9                   1137.0                   1140.2                   1136.9                   1132.3                   821.35                   981.95                   1124.0                   1129.2                   1126.7                   1122.3                   821.69                   981.17                   1123.1                   1128.5                   1126.1                   1121.7                   829.09                   993.14                   1130.2                   1134.7                   1131.9                   1127.4                   854.11                   1032.4                   1152.5                   1154.3                   1150.5                   1145.6                   745.84                   866.16                   1090.1                   1111.8                   1114.6                   1111.4                   705.05                   747.47                   863.58                   894.00                   909.01                   911.26
20.000                   2.2500                   1.5000                   2000.0                   4000.0                   75.000                   885.54                   1029.6                   1137.3                   1139.3                   1135.8                   1131.1                   903.90                   1043.8                   1142.2                   1143.6                   1139.9                   1135.1                   915.60                   1053.9                   1147.0                   1147.9                   1144.0                   1139.1                   905.50                   1045.6                   1143.2                   1144.5                   1140.7                   1135.9                   880.50                   1025.0                   1135.7                   1138.1                   1134.7                   1130.0                   880.24                   1023.8                   1134.9                   1137.4                   1134.1                   1129.4                   886.59                   1030.7                   1138.2                   1140.4                   1136.9                   1132.2                   916.60                   1064.6                   1156.4                   1156.7                   1152.4                   1147.4                   772.18                   912.11                   1113.3                   1128.3                   1128.8                   1125.0                   722.27                   766.01                   883.40                   911.22                   924.75                   926.54