% Model:              batchmodel_COIL_N_20_COIL_kr_3_COIL_kh_1.5_FUNZ_freq_6000_FUNZ_I_eff_4000.mph
% Version:            COMSOL 6.0.0.318
% Date:               Feb 9 2022, 03:58
% Table:              Tabella 1 - GRIGLIA_T
% COIL_N                 COIL_kr                  COIL_kh                  FUNZ_freq                FUNZ_I_eff               Time (s)                 Temperatura (degC), Point: (0, 0)Temperatura (degC), Point: (15, 0)Temperatura (degC), Point: (27.483, 0)Temperatura (degC), Point: (28.742, 0)Temperatura (degC), Point: (29.497, 0)Temperatura (degC), Point: (29.99, 0)Temperatura (degC), Point: (0, 62.5)Temperatura (degC), Point: (15, 62.5)Temperatura (degC), Point: (27.483, 62.5)Temperatura (degC), Point: (28.742, 62.5)Temperatura (degC), Point: (29.497, 62.5)Temperatura (degC), Point: (29.99, 62.5)Temperatura (degC), Point: (0, 125)Temperatura (degC), Point: (15, 125)Temperatura (degC), Point: (27.483, 125)Temperatura (degC), Point: (28.742, 125)Temperatura (degC), Point: (29.497, 125)Temperatura (degC), Point: (29.99, 125)Temperatura (degC), Point: (0, 187.5)Temperatura (degC), Point: (15, 187.5)Temperatura (degC), Point: (27.483, 187.5)Temperatura (degC), Point: (28.742, 187.5)Temperatura (degC), Point: (29.497, 187.5)Temperatura (degC), Point: (29.99, 187.5)Temperatura (degC), Point: (0, 250)Temperatura (degC), Point: (15, 250)Temperatura (degC), Point: (27.483, 250)Temperatura (degC), Point: (28.742, 250)Temperatura (degC), Point: (29.497, 250)Temperatura (degC), Point: (29.99, 250)Temperatura (degC), Point: (0, 312.5)Temperatura (degC), Point: (15, 312.5)Temperatura (degC), Point: (27.483, 312.5)Temperatura (degC), Point: (28.742, 312.5)Temperatura (degC), Point: (29.497, 312.5)Temperatura (degC), Point: (29.99, 312.5)Temperatura (degC), Point: (0, 375)Temperatura (degC), Point: (15, 375)Temperatura (degC), Point: (27.483, 375)Temperatura (degC), Point: (28.742, 375)Temperatura (degC), Point: (29.497, 375)Temperatura (degC), Point: (29.99, 375)Temperatura (degC), Point: (0, 437.5)Temperatura (degC), Point: (15, 437.5)Temperatura (degC), Point: (27.483, 437.5)Temperatura (degC), Point: (28.742, 437.5)Temperatura (degC), Point: (29.497, 437.5)Temperatura (degC), Point: (29.99, 437.5)Temperatura (degC), Point: (0, 468.75)Temperatura (degC), Point: (15, 468.75)Temperatura (degC), Point: (27.483, 468.75)Temperatura (degC), Point: (28.742, 468.75)Temperatura (degC), Point: (29.497, 468.75)Temperatura (degC), Point: (29.99, 468.75)Temperatura (degC), Point: (0, 492.19)Temperatura (degC), Point: (15, 492.19)Temperatura (degC), Point: (27.483, 492.19)Temperatura (degC), Point: (28.742, 492.19)Temperatura (degC), Point: (29.497, 492.19)Temperatura (degC), Point: (29.99, 492.19)
20.000                   3.0000                   1.5000                   6000.0                   4000.0                   0.0000                   20.000                   20.000                   20.000                   20.000                   20.189                   20.626                   20.000                   20.000                   20.000                   20.000                   20.189                   20.626                   20.000                   20.000                   20.000                   20.000                   20.189                   20.626                   20.000                   20.000                   20.000                   20.000                   20.189                   20.626                   20.000                   20.000                   20.000                   20.000                   20.189                   20.626                   20.000                   20.000                   20.000                   20.000                   20.189                   20.626                   20.000                   20.000                   20.000                   20.000                   20.189                   20.626                   20.000                   20.000                   20.000                   20.000                   20.185                   20.619                   20.000                   20.000                   20.000                   20.000                   20.172                   20.593                   20.000                   20.000                   20.000                   20.000                   20.147                   20.539
20.000                   3.0000                   1.5000                   6000.0                   4000.0                   5.0000                   35.267                   97.423                   468.93                   557.05                   605.46                   618.58                   35.518                   98.779                   474.42                   561.68                   610.05                   623.13                   35.447                   98.644                   473.80                   560.41                   608.43                   621.57                   35.343                   98.135                   472.20                   559.61                   607.75                   620.90                   35.495                   98.836                   475.86                   564.06                   612.16                   625.22                   35.580                   99.123                   475.05                   562.90                   611.26                   624.42                   35.400                   98.310                   473.10                   561.45                   610.03                   623.07                   35.129                   96.952                   461.27                   545.28                   591.93                   604.76                   34.334                   92.144                   427.59                   503.13                   546.66                   558.73                   52.913                   105.58                   372.16                   428.15                   462.30                   472.10
20.000                   3.0000                   1.5000                   6000.0                   4000.0                   10.000                   132.57                   260.36                   811.38                   957.66                   1019.9                   1032.8                   133.51                   261.73                   812.59                   958.07                   1020.0                   1032.8                   133.43                   261.63                   810.37                   955.34                   1017.3                   1030.2                   133.00                   261.05                   811.23                   956.71                   1018.7                   1031.6                   133.49                   262.03                   819.20                   966.33                   1028.1                   1040.6                   134.10                   263.02                   817.96                   963.39                   1024.7                   1037.3                   133.39                   261.84                   815.47                   961.24                   1022.9                   1035.6                   131.13                   256.82                   788.42                   931.20                   994.59                   1008.2                   126.21                   244.57                   717.53                   833.49                   893.62                   907.90                   141.06                   247.39                   617.01                   687.85                   725.95                   736.00
20.000                   3.0000                   1.5000                   6000.0                   4000.0                   15.000                   260.85                   415.85                   1107.7                   1168.0                   1181.5                   1181.4                   261.67                   415.66                   1120.6                   1181.4                   1195.0                   1194.9                   261.54                   414.20                   1067.1                   1136.7                   1153.2                   1153.9                   261.10                   412.90                   990.34                   1066.5                   1088.0                   1090.2                   261.93                   416.58                   1088.6                   1150.9                   1165.3                   1165.5                   262.65                   414.61                   917.66                   980.14                   1004.7                   1009.3                   261.59                   411.49                   888.96                   952.98                   980.27                   985.77                   257.46                   407.94                   990.26                   1069.1                   1090.5                   1092.6                   247.36                   386.40                   875.01                   965.38                   1004.5                   1012.5                   250.68                   375.22                   739.26                   807.46                   843.93                   852.77
20.000                   3.0000                   1.5000                   6000.0                   4000.0                   20.000                   379.49                   540.38                   1157.8                   1186.9                   1192.1                   1190.5                   379.35                   537.12                   1157.8                   1188.7                   1194.4                   1192.9                   378.83                   533.41                   1121.2                   1156.9                   1164.3                   1163.2                   378.55                   530.49                   1060.6                   1102.7                   1112.7                   1112.5                   380.22                   537.51                   1117.8                   1151.2                   1158.0                   1156.8                   380.34                   531.49                   1005.5                   1050.2                   1063.1                   1064.0                   378.18                   523.65                   929.93                   973.52                   992.22                   995.78                   374.99                   528.17                   1061.1                   1101.7                   1111.0                   1110.6                   359.17                   499.99                   1031.7                   1093.1                   1109.7                   1110.8                   353.10                   476.04                   831.99                   898.51                   930.73                   937.87
20.000                   3.0000                   1.5000                   6000.0                   4000.0                   25.000                   479.02                   634.69                   1155.2                   1173.3                   1175.8                   1173.7                   477.86                   628.75                   1142.1                   1162.2                   1165.2                   1163.3                   476.89                   623.92                   1123.8                   1146.7                   1150.8                   1149.2                   476.86                   620.84                   1093.7                   1119.2                   1124.2                   1122.9                   479.23                   628.94                   1119.2                   1140.6                   1144.3                   1142.6                   478.87                   622.72                   1083.4                   1109.3                   1114.6                   1113.4                   475.58                   611.34                   1007.3                   1043.2                   1054.3                   1055.0                   474.34                   621.02                   1095.9                   1120.2                   1124.8                   1123.4                   455.14                   594.86                   1120.5                   1149.5                   1155.0                   1153.6                   440.87                   557.08                   892.00                   945.42                   970.68                   975.95
20.000                   3.0000                   1.5000                   6000.0                   4000.0                   30.000                   558.02                   702.17                   1144.4                   1157.9                   1159.2                   1157.0                   556.29                   695.09                   1133.6                   1148.5                   1150.3                   1148.3                   555.04                   690.65                   1124.4                   1140.8                   1143.1                   1141.2                   555.37                   688.82                   1113.2                   1130.5                   1133.1                   1131.3                   557.97                   696.24                   1125.6                   1140.8                   1142.7                   1140.8                   557.51                   691.46                   1112.4                   1129.2                   1131.7                   1129.9                   553.71                   679.89                   1079.3                   1102.1                   1106.8                   1105.6                   553.73                   689.92                   1114.9                   1131.5                   1133.9                   1132.1                   534.03                   669.29                   1136.4                   1154.3                   1156.8                   1154.8                   512.81                   620.90                   935.94                   977.00                   996.07                   999.78
20.000                   3.0000                   1.5000                   6000.0                   4000.0                   35.000                   622.42                   757.24                   1143.4                   1153.7                   1154.2                   1151.9                   620.58                   750.00                   1136.8                   1148.0                   1148.7                   1146.5                   619.25                   745.73                   1132.3                   1144.2                   1145.2                   1143.1                   619.91                   745.24                   1129.0                   1141.0                   1142.0                   1139.9                   622.35                   752.13                   1135.2                   1146.3                   1147.0                   1144.8                   621.94                   748.55                   1130.4                   1141.9                   1142.9                   1140.8                   618.24                   737.26                   1116.4                   1130.2                   1131.9                   1130.0                   618.84                   746.63                   1129.7                   1141.4                   1142.4                   1140.2                   600.60                   729.43                   1138.6                   1150.9                   1152.0                   1149.8                   574.83                   675.70                   1002.2                   1036.2                   1047.8                   1048.8
20.000                   3.0000                   1.5000                   6000.0                   4000.0                   40.000                   673.87                   809.97                   1149.2                   1157.0                   1156.9                   1154.4                   672.17                   803.92                   1145.5                   1153.8                   1153.8                   1151.4                   670.97                   799.90                   1143.4                   1151.9                   1152.0                   1149.6                   671.78                   800.73                   1142.8                   1151.3                   1151.4                   1149.0                   673.83                   807.03                   1146.2                   1154.2                   1154.1                   1151.7                   673.51                   804.48                   1144.4                   1152.6                   1152.6                   1150.2                   670.32                   793.64                   1137.8                   1146.8                   1147.1                   1144.8                   671.08                   801.61                   1142.3                   1150.7                   1150.7                   1148.3                   655.24                   783.14                   1140.8                   1149.8                   1149.9                   1147.6                   627.97                   725.21                   1087.4                   1107.6                   1111.5                   1110.1
20.000                   3.0000                   1.5000                   6000.0                   4000.0                   45.000                   711.94                   863.53                   1159.0                   1165.0                   1164.2                   1161.6                   710.61                   859.20                   1157.0                   1163.1                   1162.4                   1159.9                   709.67                   856.08                   1155.8                   1162.1                   1161.4                   1158.9                   710.43                   857.74                   1156.1                   1162.3                   1161.6                   1159.1                   711.92                   862.53                   1158.0                   1164.0                   1163.2                   1160.7                   711.71                   861.07                   1157.3                   1163.3                   1162.6                   1160.0                   709.27                   852.73                   1153.6                   1160.0                   1159.4                   1156.9                   709.83                   857.23                   1154.4                   1160.6                   1159.9                   1157.4                   697.40                   836.65                   1147.0                   1153.8                   1153.3                   1150.8                   672.39                   778.03                   1136.8                   1148.2                   1149.0                   1146.8
20.000                   3.0000                   1.5000                   6000.0                   4000.0                   50.000                   746.02                   915.23                   1171.4                   1175.8                   1174.6                   1171.9                   744.73                   912.39                   1170.2                   1174.7                   1173.5                   1170.8                   743.77                   910.05                   1169.4                   1174.0                   1172.9                   1170.2                   744.70                   911.96                   1170.0                   1174.5                   1173.3                   1170.6                   745.97                   915.23                   1171.1                   1175.6                   1174.3                   1171.6                   745.88                   914.56                   1170.8                   1175.3                   1174.0                   1171.3                   743.63                   908.63                   1168.6                   1173.2                   1172.1                   1169.4                   743.61                   909.90                   1167.3                   1171.8                   1170.7                   1168.0                   731.18                   887.61                   1156.2                   1161.3                   1160.4                   1157.8                   709.00                   841.71                   1169.0                   1176.0                   1175.4                   1172.8
20.000                   3.0000                   1.5000                   6000.0                   4000.0                   55.000                   789.98                   964.84                   1185.6                   1189.0                   1187.3                   1184.5                   788.71                   963.12                   1184.9                   1188.3                   1186.7                   1183.8                   787.36                   961.35                   1184.3                   1187.8                   1186.2                   1183.3                   788.85                   963.12                   1184.9                   1188.3                   1186.7                   1183.9                   790.28                   965.23                   1185.7                   1189.0                   1187.4                   1184.5                   790.36                   965.04                   1185.6                   1188.9                   1187.3                   1184.4                   787.54                   960.85                   1183.9                   1187.4                   1185.8                   1182.9                   786.10                   959.50                   1181.1                   1184.5                   1183.0                   1180.1                   765.78                   936.26                   1167.7                   1171.5                   1170.1                   1167.3                   740.40                   909.37                   1193.3                   1198.0                   1196.7                   1193.8
20.000                   3.0000                   1.5000                   6000.0                   4000.0                   60.000                   845.29                   1011.6                   1202.2                   1204.6                   1202.6                   1199.6                   844.30                   1010.7                   1201.8                   1204.3                   1202.3                   1199.3                   842.85                   1009.4                   1201.3                   1203.8                   1201.9                   1198.9                   844.54                   1010.9                   1202.0                   1204.4                   1202.4                   1199.4                   845.83                   1012.2                   1202.4                   1204.8                   1202.8                   1199.8                   846.09                   1012.3                   1202.4                   1204.8                   1202.9                   1199.9                   843.23                   1009.4                   1201.2                   1203.6                   1201.7                   1198.7                   840.22                   1006.0                   1196.9                   1199.4                   1197.4                   1194.5                   815.13                   982.77                   1181.6                   1184.2                   1182.4                   1179.6                   790.21                   973.46                   1217.5                   1220.6                   1218.7                   1215.6
20.000                   3.0000                   1.5000                   6000.0                   4000.0                   65.000                   908.92                   1056.3                   1220.4                   1222.1                   1219.8                   1216.6                   908.39                   1056.0                   1220.3                   1222.0                   1219.7                   1216.5                   907.05                   1055.0                   1219.9                   1221.6                   1219.3                   1216.1                   908.67                   1056.3                   1220.5                   1222.1                   1219.8                   1216.7                   909.63                   1057.0                   1220.7                   1222.3                   1220.0                   1216.9                   910.06                   1057.3                   1220.9                   1222.5                   1220.2                   1217.0                   907.53                   1055.2                   1219.8                   1221.5                   1219.2                   1216.0                   902.84                   1050.1                   1214.1                   1215.8                   1213.5                   1210.4                   875.27                   1027.7                   1197.1                   1198.9                   1196.7                   1193.7                   853.50                   1034.9                   1241.7                   1243.7                   1241.3                   1238.0
20.000                   3.0000                   1.5000                   6000.0                   4000.0                   70.000                   968.98                   1096.7                   1241.5                   1242.5                   1239.9                   1236.6                   968.81                   1096.7                   1241.5                   1242.5                   1239.9                   1236.6                   967.67                   1095.9                   1241.2                   1242.1                   1239.6                   1236.3                   969.05                   1096.9                   1241.7                   1242.6                   1240.0                   1236.7                   969.67                   1097.3                   1241.7                   1242.7                   1240.1                   1236.8                   970.19                   1097.7                   1242.0                   1242.9                   1240.3                   1237.0                   968.09                   1096.1                   1241.1                   1242.0                   1239.4                   1236.1                   962.06                   1089.7                   1234.0                   1235.0                   1232.5                   1229.2                   936.10                   1068.9                   1216.3                   1217.3                   1214.8                   1211.6                   924.01                   1087.9                   1267.7                   1268.8                   1266.0                   1262.5
20.000                   3.0000                   1.5000                   6000.0                   4000.0                   75.000                   1026.4                   1135.4                   1263.1                   1263.4                   1260.5                   1257.0                   1026.5                   1135.7                   1263.2                   1263.6                   1260.7                   1257.2                   1025.6                   1135.1                   1262.9                   1263.2                   1260.4                   1256.9                   1026.7                   1135.9                   1263.4                   1263.7                   1260.8                   1257.3                   1027.0                   1136.0                   1263.3                   1263.6                   1260.7                   1257.3                   1027.6                   1136.4                   1263.6                   1263.9                   1261.0                   1257.5                   1025.9                   1135.2                   1262.8                   1263.1                   1260.2                   1256.7                   1018.7                   1127.6                   1254.5                   1254.8                   1252.0                   1248.6                   995.11                   1108.6                   1236.3                   1236.6                   1233.8                   1230.5                   993.34                   1137.6                   1293.7                   1293.9                   1290.8                   1287.1