% Model:              batchmodel_COIL_N_20_COIL_kr_3_COIL_kh_2_FUNZ_freq_6000_FUNZ_I_eff_4000.mph
% Version:            COMSOL 6.0.0.318
% Date:               Feb 9 2022, 04:32
% Table:              Tabella 1 - GRIGLIA_T
% COIL_N                 COIL_kr                  COIL_kh                  FUNZ_freq                FUNZ_I_eff               Time (s)                 Temperatura (degC), Point: (0, 0)Temperatura (degC), Point: (15, 0)Temperatura (degC), Point: (27.483, 0)Temperatura (degC), Point: (28.742, 0)Temperatura (degC), Point: (29.497, 0)Temperatura (degC), Point: (29.99, 0)Temperatura (degC), Point: (0, 62.5)Temperatura (degC), Point: (15, 62.5)Temperatura (degC), Point: (27.483, 62.5)Temperatura (degC), Point: (28.742, 62.5)Temperatura (degC), Point: (29.497, 62.5)Temperatura (degC), Point: (29.99, 62.5)Temperatura (degC), Point: (0, 125)Temperatura (degC), Point: (15, 125)Temperatura (degC), Point: (27.483, 125)Temperatura (degC), Point: (28.742, 125)Temperatura (degC), Point: (29.497, 125)Temperatura (degC), Point: (29.99, 125)Temperatura (degC), Point: (0, 187.5)Temperatura (degC), Point: (15, 187.5)Temperatura (degC), Point: (27.483, 187.5)Temperatura (degC), Point: (28.742, 187.5)Temperatura (degC), Point: (29.497, 187.5)Temperatura (degC), Point: (29.99, 187.5)Temperatura (degC), Point: (0, 250)Temperatura (degC), Point: (15, 250)Temperatura (degC), Point: (27.483, 250)Temperatura (degC), Point: (28.742, 250)Temperatura (degC), Point: (29.497, 250)Temperatura (degC), Point: (29.99, 250)Temperatura (degC), Point: (0, 312.5)Temperatura (degC), Point: (15, 312.5)Temperatura (degC), Point: (27.483, 312.5)Temperatura (degC), Point: (28.742, 312.5)Temperatura (degC), Point: (29.497, 312.5)Temperatura (degC), Point: (29.99, 312.5)Temperatura (degC), Point: (0, 375)Temperatura (degC), Point: (15, 375)Temperatura (degC), Point: (27.483, 375)Temperatura (degC), Point: (28.742, 375)Temperatura (degC), Point: (29.497, 375)Temperatura (degC), Point: (29.99, 375)Temperatura (degC), Point: (0, 437.5)Temperatura (degC), Point: (15, 437.5)Temperatura (degC), Point: (27.483, 437.5)Temperatura (degC), Point: (28.742, 437.5)Temperatura (degC), Point: (29.497, 437.5)Temperatura (degC), Point: (29.99, 437.5)Temperatura (degC), Point: (0, 468.75)Temperatura (degC), Point: (15, 468.75)Temperatura (degC), Point: (27.483, 468.75)Temperatura (degC), Point: (28.742, 468.75)Temperatura (degC), Point: (29.497, 468.75)Temperatura (degC), Point: (29.99, 468.75)Temperatura (degC), Point: (0, 492.19)Temperatura (degC), Point: (15, 492.19)Temperatura (degC), Point: (27.483, 492.19)Temperatura (degC), Point: (28.742, 492.19)Temperatura (degC), Point: (29.497, 492.19)Temperatura (degC), Point: (29.99, 492.19)
20.000                   3.0000                   2.0000                   6000.0                   4000.0                   0.0000                   20.000                   20.000                   20.000                   20.000                   20.190                   20.628                   20.000                   20.000                   20.000                   20.000                   20.190                   20.628                   20.000                   20.000                   20.000                   20.000                   20.190                   20.628                   20.000                   20.000                   20.000                   20.000                   20.190                   20.628                   20.000                   20.000                   20.000                   20.000                   20.190                   20.628                   20.000                   20.000                   20.000                   20.000                   20.190                   20.628                   20.000                   20.000                   20.000                   20.000                   20.190                   20.628                   20.000                   20.000                   20.000                   20.000                   20.186                   20.620                   20.000                   20.000                   20.000                   20.000                   20.172                   20.592                   20.000                   20.000                   20.000                   20.000                   20.144                   20.532
20.000                   3.0000                   2.0000                   6000.0                   4000.0                   5.0000                   34.302                   92.630                   445.08                   530.25                   579.00                   592.66                   34.171                   92.122                   443.71                   529.00                   577.14                   590.60                   34.124                   91.784                   439.97                   524.31                   572.54                   586.03                   34.092                   91.685                   440.04                   523.88                   571.27                   584.70                   34.198                   92.158                   441.61                   525.00                   572.90                   586.55                   34.197                   92.081                   442.02                   526.30                   574.08                   587.63                   34.191                   92.207                   443.13                   524.65                   571.91                   585.50                   33.656                   89.387                   423.52                   503.01                   548.14                   560.86                   32.877                   85.690                   398.07                   470.03                   512.03                   524.02                   34.547                   85.055                   336.79                   389.17                   420.01                   429.57
20.000                   3.0000                   2.0000                   6000.0                   4000.0                   10.000                   125.31                   252.11                   796.50                   946.70                   1012.3                   1026.1                   124.85                   251.05                   792.53                   942.05                   1007.9                   1021.9                   124.49                   250.38                   790.73                   940.14                   1006.2                   1020.2                   124.35                   250.16                   789.87                   939.13                   1005.2                   1019.3                   124.77                   250.80                   791.54                   941.01                   1006.9                   1021.0                   124.79                   250.88                   792.10                   941.70                   1007.6                   1021.6                   124.95                   251.12                   792.11                   941.72                   1007.6                   1021.6                   121.50                   244.10                   759.67                   900.34                   967.05                   981.83                   115.88                   231.42                   693.15                   800.41                   859.10                   873.50                   113.30                   219.58                   585.00                   654.72                   692.65                   702.76
20.000                   3.0000                   2.0000                   6000.0                   4000.0                   15.000                   253.78                   407.52                   1064.4                   1133.4                   1149.6                   1150.3                   253.00                   405.01                   1044.6                   1120.5                   1138.9                   1140.1                   252.52                   404.35                   1029.3                   1106.3                   1125.3                   1126.6                   252.33                   403.75                   1000.7                   1081.9                   1103.7                   1105.8                   252.86                   405.48                   1052.8                   1125.3                   1142.6                   1143.5                   252.92                   404.79                   1014.2                   1091.8                   1111.5                   1113.0                   253.09                   405.25                   1050.8                   1125.4                   1143.3                   1144.3                   247.40                   397.89                   1058.9                   1134.4                   1152.3                   1153.2                   235.33                   373.54                   872.57                   969.78                   1011.2                   1019.7                   228.41                   353.17                   716.56                   781.11                   816.46                   825.26
20.000                   3.0000                   2.0000                   6000.0                   4000.0                   20.000                   372.83                   531.71                   1139.3                   1172.0                   1178.1                   1176.7                   371.06                   524.56                   1106.5                   1145.7                   1154.0                   1153.1                   370.77                   524.52                   1101.0                   1139.9                   1148.0                   1147.1                   370.55                   522.79                   1061.5                   1106.3                   1117.1                   1117.1                   371.40                   527.84                   1124.5                   1159.4                   1166.2                   1165.0                   371.22                   524.62                   1074.6                   1115.0                   1123.9                   1123.3                   371.39                   525.97                   1116.7                   1154.0                   1161.5                   1160.5                   365.83                   522.55                   1119.5                   1154.5                   1161.4                   1160.2                   347.48                   488.58                   1011.9                   1082.0                   1102.5                   1104.4                   334.79                   457.86                   804.16                   869.15                   901.51                   908.94
20.000                   3.0000                   2.0000                   6000.0                   4000.0                   25.000                   472.12                   625.68                   1140.2                   1160.0                   1162.9                   1161.1                   469.10                   614.86                   1114.8                   1139.7                   1144.4                   1142.9                   469.19                   615.56                   1108.8                   1133.2                   1137.7                   1136.2                   468.97                   613.43                   1091.2                   1118.7                   1124.4                   1123.3                   470.11                   620.27                   1129.4                   1151.0                   1154.6                   1152.8                   469.67                   615.74                   1099.0                   1124.0                   1128.7                   1127.4                   469.90                   617.38                   1120.4                   1144.0                   1148.1                   1146.5                   465.52                   616.35                   1122.8                   1145.0                   1148.7                   1147.1                   443.64                   583.57                   1116.5                   1148.5                   1155.0                   1153.8                   424.61                   540.57                   872.86                   929.34                   956.32                   962.08
20.000                   3.0000                   2.0000                   6000.0                   4000.0                   30.000                   553.40                   695.87                   1136.1                   1150.4                   1152.0                   1149.9                   549.66                   684.42                   1119.5                   1136.8                   1139.4                   1137.5                   550.11                   685.70                   1118.4                   1135.3                   1137.8                   1135.9                   549.89                   683.75                   1111.4                   1129.5                   1132.3                   1130.6                   551.07                   690.32                   1129.7                   1145.1                   1147.0                   1145.1                   550.60                   686.18                   1116.2                   1133.1                   1135.6                   1133.8                   550.87                   687.39                   1122.7                   1139.3                   1141.6                   1139.7                   547.46                   687.08                   1124.9                   1140.8                   1142.9                   1141.0                   524.75                   660.58                   1136.1                   1155.1                   1157.9                   1156.1                   499.36                   607.21                   918.47                   962.96                   984.12                   988.40
20.000                   3.0000                   2.0000                   6000.0                   4000.0                   35.000                   615.98                   750.49                   1140.5                   1151.4                   1152.1                   1149.8                   612.39                   739.42                   1130.2                   1142.8                   1144.0                   1141.9                   613.02                   740.95                   1130.5                   1142.7                   1143.9                   1141.8                   612.81                   739.37                   1127.4                   1140.1                   1141.4                   1139.3                   613.80                   745.05                   1136.4                   1148.0                   1148.9                   1146.7                   613.44                   741.79                   1130.2                   1142.4                   1143.5                   1141.4                   613.70                   742.45                   1132.3                   1144.4                   1145.5                   1143.3                   610.95                   742.03                   1132.9                   1144.8                   1145.8                   1143.6                   590.07                   719.77                   1139.8                   1153.1                   1154.4                   1152.3                   560.85                   661.45                   974.03                   1010.2                   1024.7                   1026.8
20.000                   3.0000                   2.0000                   6000.0                   4000.0                   40.000                   666.53                   803.82                   1148.4                   1156.6                   1156.6                   1154.2                   663.46                   794.16                   1142.2                   1151.3                   1151.5                   1149.2                   664.14                   795.92                   1142.8                   1151.8                   1151.9                   1149.6                   663.95                   794.68                   1141.5                   1150.6                   1150.8                   1148.5                   664.69                   799.11                   1145.8                   1154.4                   1154.5                   1152.1                   664.47                   796.89                   1143.1                   1152.0                   1152.1                   1149.8                   664.67                   797.17                   1143.6                   1152.5                   1152.6                   1150.2                   662.36                   795.79                   1142.7                   1151.5                   1151.6                   1149.3                   644.14                   773.54                   1142.1                   1151.9                   1152.2                   1149.9                   613.95                   711.01                   1053.1                   1077.6                   1084.5                   1084.1
20.000                   3.0000                   2.0000                   6000.0                   4000.0                   45.000                   705.65                   857.33                   1158.5                   1164.7                   1164.1                   1161.5                   703.21                   849.76                   1154.9                   1161.5                   1160.9                   1158.4                   703.82                   851.56                   1155.5                   1162.0                   1161.4                   1158.9                   703.66                   850.63                   1154.9                   1161.4                   1160.9                   1158.4                   704.15                   853.57                   1156.9                   1163.3                   1162.6                   1160.1                   704.04                   852.36                   1155.8                   1162.3                   1161.7                   1159.1                   704.17                   852.50                   1155.8                   1162.3                   1161.7                   1159.2                   702.33                   849.80                   1153.6                   1160.1                   1159.6                   1157.1                   687.65                   825.89                   1146.6                   1153.9                   1153.6                   1151.1                   659.64                   762.17                   1115.6                   1130.1                   1132.0                   1130.1
20.000                   3.0000                   2.0000                   6000.0                   4000.0                   50.000                   737.95                   909.67                   1170.5                   1175.1                   1173.9                   1171.2                   735.75                   904.28                   1168.3                   1173.1                   1172.0                   1169.3                   736.35                   905.90                   1168.9                   1173.6                   1172.5                   1169.8                   736.19                   905.26                   1168.5                   1173.3                   1172.2                   1169.5                   736.50                   906.82                   1169.4                   1174.1                   1172.9                   1170.2                   736.48                   906.38                   1169.0                   1173.8                   1172.6                   1169.9                   736.63                   906.52                   1169.0                   1173.7                   1172.6                   1169.9                   734.79                   902.55                   1165.7                   1170.5                   1169.4                   1166.7                   721.85                   876.98                   1154.2                   1159.6                   1158.8                   1156.2                   697.79                   820.35                   1153.0                   1161.6                   1161.4                   1159.0
20.000                   3.0000                   2.0000                   6000.0                   4000.0                   55.000                   777.97                   959.13                   1184.9                   1188.3                   1186.7                   1183.9                   775.63                   955.49                   1183.4                   1187.0                   1185.4                   1182.6                   776.38                   956.84                   1184.0                   1187.5                   1185.9                   1183.0                   776.19                   956.40                   1183.8                   1187.3                   1185.7                   1182.9                   776.36                   957.04                   1184.0                   1187.5                   1186.0                   1183.1                   776.42                   957.01                   1184.0                   1187.5                   1185.9                   1183.1                   776.70                   957.24                   1184.0                   1187.5                   1185.9                   1183.0                   773.77                   952.10                   1179.6                   1183.2                   1181.6                   1178.8                   757.97                   925.54                   1164.9                   1168.9                   1167.5                   1164.8                   736.26                   884.68                   1180.9                   1186.2                   1185.1                   1182.3
20.000                   3.0000                   2.0000                   6000.0                   4000.0                   60.000                   840.05                   1005.3                   1202.2                   1204.8                   1202.8                   1199.8                   838.00                   1002.7                   1201.1                   1203.7                   1201.8                   1198.9                   838.83                   1003.8                   1201.5                   1204.2                   1202.3                   1199.3                   838.63                   1003.5                   1201.4                   1204.0                   1202.1                   1199.1                   838.54                   1003.7                   1201.5                   1204.1                   1202.2                   1199.2                   838.68                   1003.8                   1201.5                   1204.1                   1202.2                   1199.2                   839.12                   1004.1                   1201.5                   1204.1                   1202.2                   1199.2                   834.16                   997.90                   1195.8                   1198.5                   1196.6                   1193.7                   811.84                   971.69                   1178.6                   1181.6                   1179.9                   1177.1                   788.32                   948.65                   1203.8                   1207.6                   1205.9                   1203.0
20.000                   3.0000                   2.0000                   6000.0                   4000.0                   65.000                   902.06                   1051.3                   1219.5                   1221.3                   1219.1                   1215.9                   900.32                   1049.9                   1218.8                   1220.6                   1218.4                   1215.2                   901.22                   1050.7                   1219.2                   1221.0                   1218.8                   1215.6                   901.00                   1050.4                   1219.1                   1220.9                   1218.6                   1215.5                   900.68                   1050.2                   1219.0                   1220.7                   1218.5                   1215.4                   900.89                   1050.4                   1219.0                   1220.8                   1218.6                   1215.4                   901.47                   1050.7                   1219.1                   1220.9                   1218.6                   1215.5                   894.51                   1043.6                   1212.2                   1213.9                   1211.7                   1208.6                   865.84                   1017.7                   1192.6                   1194.5                   1192.4                   1189.4                   840.75                   1012.4                   1226.8                   1229.1                   1226.9                   1223.7
20.000                   3.0000                   2.0000                   6000.0                   4000.0                   70.000                   961.63                   1091.7                   1241.0                   1242.1                   1239.5                   1236.2                   960.36                   1090.7                   1240.5                   1241.6                   1239.0                   1235.8                   961.12                   1091.3                   1240.8                   1241.9                   1239.4                   1236.1                   960.92                   1091.1                   1240.7                   1241.8                   1239.3                   1236.0                   960.50                   1090.8                   1240.5                   1241.6                   1239.1                   1235.8                   960.68                   1091.0                   1240.6                   1241.7                   1239.1                   1235.8                   961.22                   1091.3                   1240.6                   1241.7                   1239.2                   1235.9                   953.26                   1083.2                   1232.4                   1233.5                   1231.0                   1227.7                   925.37                   1058.8                   1211.5                   1212.7                   1210.3                   1207.2                   908.90                   1066.0                   1252.5                   1253.9                   1251.3                   1247.9
20.000                   3.0000                   2.0000                   6000.0                   4000.0                   75.000                   1020.2                   1131.5                   1262.6                   1263.0                   1260.2                   1256.7                   1019.3                   1131.0                   1262.2                   1262.7                   1259.8                   1256.4                   1020.0                   1131.5                   1262.6                   1263.0                   1260.1                   1256.7                   1019.8                   1131.3                   1262.4                   1262.9                   1260.0                   1256.6                   1019.3                   1130.9                   1262.2                   1262.6                   1259.7                   1256.3                   1019.4                   1131.1                   1262.2                   1262.7                   1259.8                   1256.4                   1019.9                   1131.3                   1262.3                   1262.7                   1259.8                   1256.4                   1011.0                   1122.3                   1252.7                   1253.2                   1250.4                   1247.0                   984.06                   1099.4                   1230.7                   1231.2                   1228.5                   1225.2                   976.23                   1118.6                   1278.4                   1278.8                   1275.9                   1272.3