% Model:              batchmodel_COIL_N_20_COIL_kr_2.25_COIL_kh_1.5_FUNZ_freq_10000_FUNZ_I_eff_2500.mph
% Version:            COMSOL 6.0.0.318
% Date:               Feb 9 2022, 02:59
% Table:              Tabella 1 - GRIGLIA_T
% COIL_N                 COIL_kr                  COIL_kh                  FUNZ_freq                FUNZ_I_eff               Time (s)                 Temperatura (degC), Point: (0, 0)Temperatura (degC), Point: (15, 0)Temperatura (degC), Point: (28.051, 0)Temperatura (degC), Point: (29.025, 0)Temperatura (degC), Point: (29.61, 0)Temperatura (degC), Point: (29.99, 0)Temperatura (degC), Point: (0, 62.5)Temperatura (degC), Point: (15, 62.5)Temperatura (degC), Point: (28.051, 62.5)Temperatura (degC), Point: (29.025, 62.5)Temperatura (degC), Point: (29.61, 62.5)Temperatura (degC), Point: (29.99, 62.5)Temperatura (degC), Point: (0, 125)Temperatura (degC), Point: (15, 125)Temperatura (degC), Point: (28.051, 125)Temperatura (degC), Point: (29.025, 125)Temperatura (degC), Point: (29.61, 125)Temperatura (degC), Point: (29.99, 125)Temperatura (degC), Point: (0, 187.5)Temperatura (degC), Point: (15, 187.5)Temperatura (degC), Point: (28.051, 187.5)Temperatura (degC), Point: (29.025, 187.5)Temperatura (degC), Point: (29.61, 187.5)Temperatura (degC), Point: (29.99, 187.5)Temperatura (degC), Point: (0, 250)Temperatura (degC), Point: (15, 250)Temperatura (degC), Point: (28.051, 250)Temperatura (degC), Point: (29.025, 250)Temperatura (degC), Point: (29.61, 250)Temperatura (degC), Point: (29.99, 250)Temperatura (degC), Point: (0, 312.5)Temperatura (degC), Point: (15, 312.5)Temperatura (degC), Point: (28.051, 312.5)Temperatura (degC), Point: (29.025, 312.5)Temperatura (degC), Point: (29.61, 312.5)Temperatura (degC), Point: (29.99, 312.5)Temperatura (degC), Point: (0, 375)Temperatura (degC), Point: (15, 375)Temperatura (degC), Point: (28.051, 375)Temperatura (degC), Point: (29.025, 375)Temperatura (degC), Point: (29.61, 375)Temperatura (degC), Point: (29.99, 375)Temperatura (degC), Point: (0, 437.5)Temperatura (degC), Point: (15, 437.5)Temperatura (degC), Point: (28.051, 437.5)Temperatura (degC), Point: (29.025, 437.5)Temperatura (degC), Point: (29.61, 437.5)Temperatura (degC), Point: (29.99, 437.5)Temperatura (degC), Point: (0, 468.75)Temperatura (degC), Point: (15, 468.75)Temperatura (degC), Point: (28.051, 468.75)Temperatura (degC), Point: (29.025, 468.75)Temperatura (degC), Point: (29.61, 468.75)Temperatura (degC), Point: (29.99, 468.75)Temperatura (degC), Point: (0, 492.19)Temperatura (degC), Point: (15, 492.19)Temperatura (degC), Point: (28.051, 492.19)Temperatura (degC), Point: (29.025, 492.19)Temperatura (degC), Point: (29.61, 492.19)Temperatura (degC), Point: (29.99, 492.19)
20.000                   2.2500                   1.5000                   10000                    2500.0                   0.0000                   20.000                   20.000                   20.000                   20.000                   20.135                   20.590                   20.000                   20.000                   20.000                   20.000                   20.136                   20.594                   20.000                   20.000                   20.000                   20.000                   20.138                   20.598                   20.000                   20.000                   20.000                   20.000                   20.137                   20.596                   20.000                   20.000                   20.000                   20.000                   20.135                   20.591                   20.000                   20.000                   20.000                   20.000                   20.136                   20.592                   20.000                   20.000                   20.000                   20.000                   20.137                   20.597                   20.000                   20.000                   20.000                   20.000                   20.138                   20.597                   20.000                   20.000                   20.000                   20.000                   20.132                   20.582                   20.000                   20.000                   20.000                   20.000                   20.114                   20.530
20.000                   2.2500                   1.5000                   10000                    2500.0                   5.0000                   29.025                   64.623                   285.27                   320.64                   342.24                   349.30                   28.968                   64.644                   284.56                   319.75                   341.55                   348.74                   29.012                   64.738                   285.69                   321.24                   342.78                   349.92                   28.947                   64.481                   283.50                   318.62                   340.18                   347.26                   28.972                   64.690                   284.91                   320.12                   341.64                   348.69                   28.940                   64.532                   284.12                   319.27                   340.72                   347.73                   28.990                   64.690                   285.45                   320.90                   342.69                   349.91                   29.013                   64.833                   285.45                   320.68                   342.17                   349.27                   28.532                   62.542                   272.05                   305.25                   325.56                   332.32                   27.006                   59.923                   233.38                   258.15                   273.10                   278.20
20.000                   2.2500                   1.5000                   10000                    2500.0                   10.000                   89.982                   174.67                   523.54                   576.30                   606.23                   614.72                   89.865                   174.86                   523.68                   575.34                   604.33                   612.67                   90.082                   175.49                   529.25                   582.15                   613.12                   621.95                   89.657                   174.31                   522.95                   575.42                   604.99                   613.40                   89.816                   174.58                   523.23                   575.52                   605.18                   613.71                   89.766                   174.56                   522.39                   574.58                   604.41                   612.89                   89.785                   174.70                   522.65                   574.43                   604.23                   612.73                   89.747                   174.54                   521.73                   572.48                   602.11                   610.69                   86.315                   166.86                   495.04                   543.55                   571.59                   579.61                   87.007                   160.33                   420.36                   455.06                   476.68                   483.60
20.000                   2.2500                   1.5000                   10000                    2500.0                   15.000                   185.13                   296.50                   718.78                   787.20                   824.34                   834.13                   185.14                   296.84                   719.71                   786.93                   822.08                   831.59                   185.84                   298.62                   731.19                   800.16                   839.59                   850.07                   184.79                   296.39                   719.45                   787.21                   823.66                   833.42                   185.06                   296.92                   722.64                   791.08                   827.97                   837.98                   185.01                   296.64                   718.42                   786.36                   822.92                   832.68                   184.96                   296.60                   713.84                   778.72                   814.01                   823.64                   184.44                   295.72                   712.54                   777.18                   813.27                   823.11                   177.23                   283.53                   680.21                   739.91                   774.42                   783.88                   173.51                   269.01                   587.78                   630.40                   655.22                   662.42
20.000                   2.2500                   1.5000                   10000                    2500.0                   20.000                   288.81                   412.47                   920.67                   1002.2                   1036.8                   1043.7                   288.96                   412.80                   916.56                   996.79                   1031.4                   1038.4                   290.27                   415.30                   929.57                   1010.7                   1044.1                   1050.6                   288.69                   412.71                   922.17                   1003.7                   1038.1                   1045.0                   289.12                   413.54                   924.58                   1005.3                   1039.3                   1046.0                   288.93                   412.82                   918.43                   999.02                   1033.6                   1040.7                   288.85                   412.77                   917.97                   998.57                   1033.1                   1040.1                   287.70                   411.34                   918.43                   1000.3                   1035.2                   1042.2                   277.28                   395.41                   856.07                   935.29                   972.34                   980.70                   271.07                   377.41                   711.37                   755.86                   781.24                   788.02
20.000                   2.2500                   1.5000                   10000                    2500.0                   25.000                   386.64                   515.43                   1099.6                   1137.5                   1146.3                   1146.2                   386.83                   513.97                   921.53                   957.84                   974.90                   978.62                   388.56                   518.09                   1087.1                   1125.4                   1134.5                   1134.5                   386.76                   514.99                   970.79                   1010.8                   1026.3                   1028.9                   387.31                   515.90                   982.61                   1023.7                   1038.3                   1040.5                   386.89                   514.86                   1073.2                   1117.7                   1128.6                   1129.0                   386.87                   514.72                   961.41                   1001.3                   1018.0                   1021.2                   385.29                   513.62                   947.20                   982.17                   997.02                   999.96                   372.11                   494.01                   938.87                   993.99                   1019.1                   1024.3                   361.53                   469.90                   790.93                   835.76                   859.57                   865.51
20.000                   2.2500                   1.5000                   10000                    2500.0                   30.000                   470.79                   597.00                   1112.3                   1135.8                   1140.7                   1139.9                   470.72                   591.82                   946.44                   973.23                   985.78                   988.37                   472.73                   598.53                   1101.1                   1126.0                   1131.6                   1130.9                   470.94                   594.45                   1005.9                   1036.3                   1046.8                   1048.0                   471.50                   595.47                   1016.7                   1047.0                   1056.8                   1057.6                   470.83                   595.03                   1095.0                   1121.9                   1128.0                   1127.5                   470.93                   594.02                   1009.9                   1041.7                   1052.5                   1053.7                   469.58                   593.50                   978.93                   1005.8                   1016.6                   1018.4                   454.31                   573.01                   1014.2                   1053.2                   1065.7                   1067.0                   439.90                   543.63                   849.58                   888.33                   908.41                   913.19
20.000                   2.2500                   1.5000                   10000                    2500.0                   35.000                   539.94                   658.09                   1108.8                   1126.7                   1130.2                   1129.2                   539.65                   651.51                   984.06                   1005.2                   1014.1                   1015.5                   541.80                   658.93                   1096.7                   1115.9                   1119.9                   1119.0                   540.10                   654.65                   1039.6                   1063.5                   1070.7                   1070.9                   540.62                   655.72                   1044.8                   1068.1                   1074.7                   1074.7                   539.87                   655.71                   1093.4                   1113.7                   1118.1                   1117.2                   540.01                   654.42                   1047.4                   1071.7                   1078.6                   1078.6                   539.02                   654.07                   1019.0                   1041.6                   1049.2                   1049.6                   522.96                   636.53                   1064.5                   1089.0                   1095.0                   1094.7                   504.94                   601.70                   888.73                   921.80                   938.77                   942.68
20.000                   2.2500                   1.5000                   10000                    2500.0                   40.000                   598.28                   706.73                   1099.0                   1113.3                   1115.9                   1114.8                   597.89                   700.55                   1030.7                   1049.4                   1055.1                   1055.1                   600.01                   707.42                   1087.1                   1102.2                   1105.3                   1104.3                   598.47                   703.63                   1062.6                   1080.6                   1085.2                   1084.6                   598.92                   704.57                   1064.2                   1081.4                   1085.6                   1084.9                   598.21                   704.63                   1084.7                   1100.6                   1103.9                   1102.9                   598.35                   703.52                   1068.7                   1086.5                   1090.9                   1090.2                   597.65                   703.31                   1055.3                   1072.9                   1077.4                   1076.9                   582.20                   689.49                   1083.1                   1099.6                   1103.0                   1102.1                   561.38                   650.36                   923.35                   951.80                   966.37                   969.60
20.000                   2.2500                   1.5000                   10000                    2500.0                   45.000                   645.65                   745.81                   1091.7                   1103.5                   1105.5                   1104.3                   645.28                   740.70                   1064.6                   1078.9                   1082.2                   1081.4                   647.25                   746.58                   1085.9                   1098.0                   1100.2                   1099.1                   645.88                   743.51                   1076.3                   1089.6                   1092.4                   1091.4                   646.25                   744.18                   1077.0                   1089.9                   1092.5                   1091.4                   645.65                   744.06                   1083.1                   1095.7                   1098.1                   1097.0                   645.77                   743.29                   1078.7                   1091.9                   1094.6                   1093.6                   645.29                   743.54                   1076.4                   1089.4                   1092.0                   1091.0                   631.35                   732.29                   1090.7                   1103.1                   1105.3                   1104.1                   609.10                   690.75                   951.75                   975.31                   987.18                   989.66
20.000                   2.2500                   1.5000                   10000                    2500.0                   50.000                   684.08                   782.73                   1091.9                   1101.5                   1102.9                   1101.5                   683.81                   778.74                   1083.8                   1094.3                   1096.1                   1094.8                   685.58                   783.99                   1091.1                   1100.6                   1102.1                   1100.7                   684.38                   781.26                   1087.5                   1097.5                   1099.0                   1097.8                   684.67                   781.82                   1087.4                   1097.2                   1098.8                   1097.5                   684.19                   781.27                   1088.1                   1098.0                   1099.5                   1098.3                   684.31                   781.07                   1088.0                   1097.9                   1099.5                   1098.2                   683.99                   781.65                   1089.2                   1099.0                   1100.4                   1099.1                   672.04                   770.75                   1096.2                   1105.8                   1107.2                   1105.8                   649.59                   725.01                   979.82                   998.83                   1007.8                   1009.3
20.000                   2.2500                   1.5000                   10000                    2500.0                   55.000                   714.81                   820.13                   1096.9                   1104.4                   1105.2                   1103.7                   714.66                   817.73                   1095.8                   1103.4                   1104.2                   1102.8                   716.10                   822.16                   1098.6                   1106.0                   1106.7                   1105.2                   715.13                   819.75                   1097.3                   1104.8                   1105.5                   1104.1                   715.34                   820.14                   1096.5                   1104.0                   1104.7                   1103.3                   714.99                   819.33                   1095.8                   1103.4                   1104.2                   1102.7                   715.06                   819.61                   1097.2                   1104.7                   1105.5                   1104.0                   714.91                   820.36                   1098.6                   1106.0                   1106.7                   1105.3                   705.45                   808.90                   1101.1                   1108.6                   1109.3                   1107.8                   683.87                   756.73                   1014.4                   1030.1                   1036.0                   1036.4
20.000                   2.2500                   1.5000                   10000                    2500.0                   60.000                   740.39                   857.44                   1103.5                   1109.3                   1109.4                   1107.8                   740.24                   856.61                   1105.3                   1111.0                   1111.1                   1109.5                   741.57                   860.14                   1106.4                   1112.0                   1112.1                   1110.5                   740.67                   858.07                   1106.0                   1111.6                   1111.7                   1110.1                   740.82                   858.20                   1104.8                   1110.5                   1110.6                   1109.0                   740.57                   857.48                   1103.9                   1109.6                   1109.8                   1108.2                   740.61                   857.96                   1105.7                   1111.4                   1111.5                   1109.9                   740.54                   858.65                   1106.9                   1112.5                   1112.6                   1110.9                   732.16                   846.88                   1105.9                   1111.8                   1111.9                   1110.3                   711.74                   792.60                   1053.0                   1065.0                   1068.2                   1067.5
20.000                   2.2500                   1.5000                   10000                    2500.0                   65.000                   764.77                   893.90                   1111.2                   1115.5                   1115.1                   1113.4                   764.66                   894.35                   1113.3                   1117.5                   1117.1                   1115.4                   766.12                   897.07                   1114.4                   1118.5                   1118.1                   1116.3                   765.09                   895.27                   1113.9                   1118.1                   1117.7                   1115.9                   765.20                   895.15                   1112.6                   1116.8                   1116.4                   1114.7                   765.04                   894.72                   1112.1                   1116.3                   1115.9                   1114.2                   765.05                   895.20                   1113.7                   1117.9                   1117.6                   1115.8                   764.96                   895.65                   1114.4                   1118.6                   1118.2                   1116.4                   756.04                   883.61                   1111.0                   1115.5                   1115.2                   1113.5                   735.24                   832.01                   1089.8                   1098.0                   1098.9                   1097.5
20.000                   2.2500                   1.5000                   10000                    2500.0                   70.000                   794.95                   927.98                   1119.0                   1122.1                   1121.3                   1119.5                   795.23                   928.99                   1121.0                   1124.0                   1123.2                   1121.3                   797.06                   931.25                   1122.1                   1125.0                   1124.2                   1122.3                   795.65                   929.57                   1121.5                   1124.5                   1123.7                   1121.8                   795.77                   929.32                   1120.2                   1123.2                   1122.4                   1120.5                   795.71                   929.20                   1120.0                   1123.0                   1122.2                   1120.4                   795.65                   929.56                   1121.4                   1124.4                   1123.6                   1121.8                   795.43                   929.69                   1121.8                   1124.8                   1124.0                   1122.1                   783.75                   916.99                   1116.6                   1120.0                   1119.4                   1117.6                   757.60                   874.22                   1113.6                   1118.8                   1118.5                   1116.7
20.000                   2.2500                   1.5000                   10000                    2500.0                   75.000                   834.10                   958.91                   1126.8                   1129.0                   1127.9                   1125.9                   834.76                   959.97                   1128.2                   1130.3                   1129.2                   1127.3                   836.84                   961.98                   1129.5                   1131.6                   1130.5                   1128.5                   835.12                   960.36                   1128.7                   1130.9                   1129.8                   1127.8                   835.24                   960.08                   1127.5                   1129.7                   1128.6                   1126.6                   835.31                   960.19                   1127.6                   1129.7                   1128.6                   1126.7                   835.15                   960.40                   1128.8                   1130.9                   1129.8                   1127.9                   834.67                   960.21                   1128.9                   1131.1                   1130.0                   1128.0                   819.78                   947.05                   1122.8                   1125.3                   1124.4                   1122.5                   789.63                   916.68                   1129.8                   1133.0                   1132.1                   1130.2