% Model:              batchmodel_COIL_N_20_COIL_kr_3_COIL_kh_1.5_FUNZ_freq_2000_FUNZ_I_eff_2500.mph
% Version:            COMSOL 6.0.0.318
% Date:               Feb 9 2022, 03:34
% Table:              Tabella 1 - GRIGLIA_T
% COIL_N                 COIL_kr                  COIL_kh                  FUNZ_freq                FUNZ_I_eff               Time (s)                 Temperatura (degC), Point: (0, 0)Temperatura (degC), Point: (15, 0)Temperatura (degC), Point: (25.641, 0)Temperatura (degC), Point: (27.821, 0)Temperatura (degC), Point: (29.128, 0)Temperatura (degC), Point: (29.99, 0)Temperatura (degC), Point: (0, 62.5)Temperatura (degC), Point: (15, 62.5)Temperatura (degC), Point: (25.641, 62.5)Temperatura (degC), Point: (27.821, 62.5)Temperatura (degC), Point: (29.128, 62.5)Temperatura (degC), Point: (29.99, 62.5)Temperatura (degC), Point: (0, 125)Temperatura (degC), Point: (15, 125)Temperatura (degC), Point: (25.641, 125)Temperatura (degC), Point: (27.821, 125)Temperatura (degC), Point: (29.128, 125)Temperatura (degC), Point: (29.99, 125)Temperatura (degC), Point: (0, 187.5)Temperatura (degC), Point: (15, 187.5)Temperatura (degC), Point: (25.641, 187.5)Temperatura (degC), Point: (27.821, 187.5)Temperatura (degC), Point: (29.128, 187.5)Temperatura (degC), Point: (29.99, 187.5)Temperatura (degC), Point: (0, 250)Temperatura (degC), Point: (15, 250)Temperatura (degC), Point: (25.641, 250)Temperatura (degC), Point: (27.821, 250)Temperatura (degC), Point: (29.128, 250)Temperatura (degC), Point: (29.99, 250)Temperatura (degC), Point: (0, 312.5)Temperatura (degC), Point: (15, 312.5)Temperatura (degC), Point: (25.641, 312.5)Temperatura (degC), Point: (27.821, 312.5)Temperatura (degC), Point: (29.128, 312.5)Temperatura (degC), Point: (29.99, 312.5)Temperatura (degC), Point: (0, 375)Temperatura (degC), Point: (15, 375)Temperatura (degC), Point: (25.641, 375)Temperatura (degC), Point: (27.821, 375)Temperatura (degC), Point: (29.128, 375)Temperatura (degC), Point: (29.99, 375)Temperatura (degC), Point: (0, 437.5)Temperatura (degC), Point: (15, 437.5)Temperatura (degC), Point: (25.641, 437.5)Temperatura (degC), Point: (27.821, 437.5)Temperatura (degC), Point: (29.128, 437.5)Temperatura (degC), Point: (29.99, 437.5)Temperatura (degC), Point: (0, 468.75)Temperatura (degC), Point: (15, 468.75)Temperatura (degC), Point: (25.641, 468.75)Temperatura (degC), Point: (27.821, 468.75)Temperatura (degC), Point: (29.128, 468.75)Temperatura (degC), Point: (29.99, 468.75)Temperatura (degC), Point: (0, 492.19)Temperatura (degC), Point: (15, 492.19)Temperatura (degC), Point: (25.641, 492.19)Temperatura (degC), Point: (27.821, 492.19)Temperatura (degC), Point: (29.128, 492.19)Temperatura (degC), Point: (29.99, 492.19)
20.000                   3.0000                   1.5000                   2000.0                   2500.0                   0.0000                   20.000                   20.000                   20.000                   20.000                   20.023                   20.131                   20.000                   20.000                   20.000                   20.000                   20.023                   20.131                   20.000                   20.000                   20.000                   20.000                   20.023                   20.131                   20.000                   20.000                   20.000                   20.000                   20.023                   20.131                   20.000                   20.000                   20.000                   20.000                   20.023                   20.131                   20.000                   20.000                   20.000                   20.000                   20.023                   20.131                   20.000                   20.000                   20.000                   20.000                   20.023                   20.131                   20.000                   20.000                   20.000                   20.000                   20.023                   20.129                   20.000                   20.000                   20.000                   20.000                   20.020                   20.119                   20.000                   20.000                   20.000                   20.000                   20.009                   20.089
20.000                   3.0000                   1.5000                   2000.0                   2500.0                   5.0000                   25.814                   41.933                   105.51                   127.28                   141.19                   146.47                   25.774                   41.812                   105.79                   127.30                   141.15                   146.45                   25.779                   41.791                   105.04                   126.75                   140.55                   145.96                   25.786                   41.843                   105.32                   126.89                   140.80                   146.20                   25.770                   41.739                   105.04                   126.81                   140.97                   146.37                   25.829                   42.009                   106.23                   128.01                   142.04                   147.46                   25.582                   40.940                   100.67                   121.90                   135.42                   140.76                   24.700                   38.069                   93.544                   113.22                   125.96                   131.20                   24.146                   36.185                   87.990                   106.09                   117.63                   122.51                   28.352                   37.495                   75.164                   87.213                   94.810                   98.266
20.000                   3.0000                   1.5000                   2000.0                   2500.0                   10.000                   53.139                   88.295                   172.75                   198.42                   214.73                   220.52                   53.008                   88.101                   172.39                   197.83                   214.02                   219.80                   52.838                   87.356                   169.55                   194.54                   210.59                   216.35                   52.905                   87.608                   170.49                   195.68                   211.83                   217.62                   53.078                   88.192                   172.56                   198.15                   214.45                   220.25                   53.139                   88.102                   171.50                   196.77                   212.92                   218.70                   51.874                   85.553                   166.66                   191.56                   207.55                   213.30                   48.537                   80.067                   157.95                   182.04                   197.53                   203.15                   46.469                   75.975                   147.85                   169.24                   182.90                   187.98                   52.352                   74.377                   124.58                   138.52                   147.33                   150.87
20.000                   3.0000                   1.5000                   2000.0                   2500.0                   15.000                   96.108                   139.44                   234.50                   263.21                   281.30                   287.41                   95.913                   139.18                   234.14                   262.94                   281.09                   287.21                   95.578                   138.48                   233.11                   261.95                   280.13                   286.26                   95.699                   138.71                   233.47                   262.27                   280.41                   286.53                   96.151                   139.50                   234.60                   263.41                   281.55                   287.66                   96.016                   139.15                   233.98                   262.78                   280.92                   287.03                   93.804                   136.11                   229.85                   258.39                   276.41                   282.51                   88.121                   128.39                   217.56                   244.56                   261.65                   267.50                   82.592                   118.58                   195.98                   218.92                   233.52                   238.73                   80.368                   107.67                   160.81                   175.26                   184.38                   187.95
20.000                   3.0000                   1.5000                   2000.0                   2500.0                   20.000                   143.45                   192.28                   297.27                   328.91                   348.56                   354.88                   143.23                   192.03                   297.08                   328.89                   348.66                   355.00                   142.87                   191.55                   296.84                   328.76                   348.62                   354.98                   143.03                   191.75                   297.03                   328.96                   348.78                   355.14                   143.60                   192.44                   297.43                   329.21                   348.98                   355.32                   143.32                   192.05                   297.21                   329.06                   348.85                   355.19                   140.48                   188.71                   293.08                   324.71                   344.37                   350.68                   132.50                   178.51                   277.40                   307.05                   325.55                   331.58                   121.95                   161.68                   244.94                   269.59                   285.14                   290.49                   112.32                   142.35                   198.56                   213.64                   223.09                   226.70
20.000                   3.0000                   1.5000                   2000.0                   2500.0                   25.000                   193.41                   246.02                   359.84                   394.29                   415.23                   421.70                   193.18                   245.77                   359.73                   394.40                   415.56                   422.02                   192.86                   245.44                   359.68                   394.36                   415.52                   422.00                   193.06                   245.69                   360.00                   394.74                   415.95                   422.42                   193.58                   246.16                   359.94                   394.48                   415.56                   422.03                   193.22                   245.77                   359.72                   394.31                   415.40                   421.86                   190.04                   242.18                   355.32                   389.71                   410.74                   417.14                   179.66                   229.32                   336.25                   368.42                   388.22                   394.36                   163.15                   205.22                   294.08                   320.52                   337.05                   342.52                   147.41                   178.80                   237.71                   253.47                   263.27                   266.93
20.000                   3.0000                   1.5000                   2000.0                   2500.0                   30.000                   243.25                   299.42                   422.13                   459.59                   481.89                   488.50                   243.00                   299.15                   421.99                   459.66                   482.23                   488.79                   242.73                   298.95                   422.08                   459.71                   482.21                   488.80                   242.99                   299.28                   422.58                   460.33                   482.95                   489.53                   243.45                   299.57                   422.21                   459.72                   482.16                   488.74                   243.02                   299.12                   421.88                   459.39                   481.83                   488.38                   239.56                   295.33                   417.20                   454.52                   476.94                   483.42                   226.74                   279.72                   394.52                   429.26                   450.34                   456.57                   204.34                   248.63                   343.06                   371.31                   388.82                   394.38                   183.06                   215.67                   277.20                   293.67                   303.84                   307.55
20.000                   3.0000                   1.5000                   2000.0                   2500.0                   35.000                   292.25                   351.65                   483.70                   524.80                   548.72                   555.43                   291.92                   351.25                   483.19                   524.37                   548.42                   555.05                   291.73                   351.14                   483.41                   524.62                   548.63                   555.29                   292.09                   351.62                   484.20                   525.55                   549.78                   556.45                   292.47                   351.84                   483.87                   525.04                   549.07                   555.74                   291.94                   351.25                   483.17                   524.24                   548.25                   554.88                   288.38                   347.34                   478.27                   519.06                   543.00                   549.58                   273.00                   328.77                   451.27                   488.75                   511.05                   517.35                   245.12                   291.51                   391.52                   421.69                   440.13                   445.74                   219.73                   253.38                   317.47                   334.72                   345.30                   349.02
20.000                   3.0000                   1.5000                   2000.0                   2500.0                   40.000                   341.24                   403.88                   545.26                   590.00                   615.54                   622.36                   340.84                   403.34                   544.39                   589.07                   614.62                   621.31                   340.73                   403.34                   544.75                   589.52                   615.06                   621.79                   341.20                   403.96                   545.82                   590.78                   616.61                   623.37                   341.49                   404.12                   545.53                   590.36                   615.98                   622.74                   340.87                   403.37                   544.47                   589.10                   614.68                   621.39                   337.20                   399.35                   539.34                   583.61                   609.07                   615.74                   319.27                   377.83                   508.02                   548.24                   571.76                   578.13                   285.91                   334.38                   439.98                   472.06                   491.44                   497.10                   256.41                   291.08                   357.74                   375.77                   386.75                   390.50
20.000                   3.0000                   1.5000                   2000.0                   2500.0                   45.000                   390.24                   456.11                   606.82                   655.21                   682.36                   689.30                   389.76                   455.44                   605.59                   653.78                   680.81                   687.57                   389.73                   455.53                   606.08                   654.43                   681.48                   688.29                   390.30                   456.31                   607.43                   656.01                   683.44                   690.29                   390.52                   456.39                   607.20                   655.67                   682.89                   689.74                   389.79                   455.50                   605.77                   653.96                   681.11                   687.89                   386.03                   451.36                   600.41                   648.15                   675.14                   681.90                   365.54                   426.88                   564.77                   607.72                   632.46                   638.91                   326.70                   377.26                   488.45                   522.44                   542.75                   548.46                   293.08                   328.79                   398.01                   416.82                   428.21                   431.98
20.000                   3.0000                   1.5000                   2000.0                   2500.0                   50.000                   434.95                   502.53                   656.55                   707.42                   736.23                   743.28                   434.41                   501.79                   655.29                   705.86                   734.46                   741.34                   434.44                   501.93                   655.76                   706.57                   735.23                   742.16                   435.09                   502.81                   657.24                   708.37                   737.47                   744.45                   435.26                   502.86                   657.05                   708.08                   737.00                   743.98                   434.47                   501.91                   655.66                   706.44                   735.26                   742.18                   430.66                   497.73                   650.24                   700.26                   728.68                   735.56                   408.54                   471.94                   614.83                   660.17                   685.76                   692.18                   365.93                   418.52                   535.47                   571.55                   592.79                   598.55                   329.10                   365.89                   437.62                   457.26                   469.09                   472.85
20.000                   3.0000                   1.5000                   2000.0                   2500.0                   55.000                   479.23                   548.37                   705.09                   758.33                   788.80                   795.96                   478.63                   547.58                   703.84                   756.68                   786.85                   793.87                   478.72                   547.76                   704.28                   757.44                   787.72                   794.76                   479.45                   548.73                   705.87                   759.45                   790.21                   797.33                   479.57                   548.75                   705.72                   759.19                   789.83                   796.94                   478.73                   547.75                   704.42                   757.68                   788.19                   795.24                   474.87                   543.54                   698.95                   751.12                   780.98                   787.97                   451.22                   516.60                   664.22                   711.91                   738.31                   744.70                   405.01                   459.63                   582.34                   620.53                   642.70                   648.51                   365.04                   402.92                   477.17                   497.64                   509.91                   513.66
20.000                   3.0000                   1.5000                   2000.0                   2500.0                   60.000                   519.80                   589.46                   756.33                   816.85                   849.04                   856.00                   519.17                   588.65                   755.00                   815.26                   847.32                   854.19                   519.30                   588.87                   755.50                   816.01                   848.14                   855.02                   520.08                   589.86                   757.23                   818.04                   850.44                   857.35                   520.16                   589.88                   757.14                   817.92                   850.31                   857.24                   519.30                   588.89                   755.85                   816.57                   848.88                   855.76                   515.43                   584.71                   749.72                   809.42                   841.29                   848.17                   490.41                   556.49                   707.52                   760.22                   788.77                   795.31                   441.49                   497.44                   622.98                   662.50                   685.09                   690.84                   399.21                   438.09                   514.50                   535.60                   548.18                   551.89
20.000                   3.0000                   1.5000                   2000.0                   2500.0                   65.000                   559.62                   629.59                   808.11                   876.92                   910.83                   917.53                   558.96                   628.78                   806.68                   875.41                   909.42                   916.09                   559.14                   629.03                   807.26                   876.13                   910.16                   916.83                   559.95                   630.03                   809.15                   878.15                   912.18                   918.82                   560.01                   630.04                   809.12                   878.19                   912.34                   919.01                   559.13                   629.08                   807.82                   877.00                   911.14                   917.79                   555.27                   624.95                   800.90                   869.22                   903.22                   909.95                   528.91                   595.41                   749.59                   807.83                   838.81                   845.54                   477.45                   534.59                   662.36                   703.06                   725.97                   731.62                   433.02                   472.88                   551.37                   573.08                   585.93                   589.60
20.000                   3.0000                   1.5000                   2000.0                   2500.0                   70.000                   595.09                   665.12                   861.82                   931.41                   963.56                   969.23                   594.44                   664.33                   860.37                   929.98                   962.30                   967.99                   594.64                   664.60                   860.96                   930.63                   962.94                   968.61                   595.44                   665.55                   862.74                   932.40                   964.58                   970.21                   595.48                   665.54                   862.61                   932.29                   964.58                   970.23                   594.64                   664.67                   861.57                   931.47                   963.83                   969.48                   590.94                   660.87                   855.80                   925.58                   958.11                   963.89                   563.69                   630.03                   795.13                   857.01                   888.27                   894.62                   510.52                   567.46                   694.30                   735.71                   759.17                   764.78                   464.66                   505.00                   583.77                   605.52                   618.29                   621.83
20.000                   3.0000                   1.5000                   2000.0                   2500.0                   75.000                   629.16                   699.16                   916.17                   984.09                   1013.3                   1017.7                   628.53                   698.40                   914.71                   982.74                   1012.2                   1016.6                   628.73                   698.67                   915.29                   983.29                   1012.7                   1017.1                   629.51                   699.56                   916.89                   984.74                   1014.0                   1018.3                   629.54                   699.54                   916.60                   984.40                   1013.7                   1018.0                   628.75                   698.77                   915.91                   984.02                   1013.4                   1017.8                   625.27                   695.39                   911.91                   980.82                   1010.7                   1015.3                   597.27                   663.24                   841.79                   906.69                   937.55                   943.32                   542.65                   598.95                   723.84                   765.79                   789.88                   795.46                   495.60                   536.24                   614.72                   636.32                   648.91                   652.27