% Model:              batchmodel_COIL_N_20_COIL_kr_1.5_COIL_kh_2_FUNZ_freq_10000_FUNZ_I_eff_4000.mph
% Version:            COMSOL 6.0.0.318
% Date:               Feb 9 2022, 01:45
% Table:              Tabella 1 - GRIGLIA_T
% COIL_N                 COIL_kr                  COIL_kh                  FUNZ_freq                FUNZ_I_eff               Time (s)                 Temperatura (degC), Point: (0, 0)Temperatura (degC), Point: (15, 0)Temperatura (degC), Point: (28.051, 0)Temperatura (degC), Point: (29.025, 0)Temperatura (degC), Point: (29.61, 0)Temperatura (degC), Point: (29.99, 0)Temperatura (degC), Point: (0, 62.5)Temperatura (degC), Point: (15, 62.5)Temperatura (degC), Point: (28.051, 62.5)Temperatura (degC), Point: (29.025, 62.5)Temperatura (degC), Point: (29.61, 62.5)Temperatura (degC), Point: (29.99, 62.5)Temperatura (degC), Point: (0, 125)Temperatura (degC), Point: (15, 125)Temperatura (degC), Point: (28.051, 125)Temperatura (degC), Point: (29.025, 125)Temperatura (degC), Point: (29.61, 125)Temperatura (degC), Point: (29.99, 125)Temperatura (degC), Point: (0, 187.5)Temperatura (degC), Point: (15, 187.5)Temperatura (degC), Point: (28.051, 187.5)Temperatura (degC), Point: (29.025, 187.5)Temperatura (degC), Point: (29.61, 187.5)Temperatura (degC), Point: (29.99, 187.5)Temperatura (degC), Point: (0, 250)Temperatura (degC), Point: (15, 250)Temperatura (degC), Point: (28.051, 250)Temperatura (degC), Point: (29.025, 250)Temperatura (degC), Point: (29.61, 250)Temperatura (degC), Point: (29.99, 250)Temperatura (degC), Point: (0, 312.5)Temperatura (degC), Point: (15, 312.5)Temperatura (degC), Point: (28.051, 312.5)Temperatura (degC), Point: (29.025, 312.5)Temperatura (degC), Point: (29.61, 312.5)Temperatura (degC), Point: (29.99, 312.5)Temperatura (degC), Point: (0, 375)Temperatura (degC), Point: (15, 375)Temperatura (degC), Point: (28.051, 375)Temperatura (degC), Point: (29.025, 375)Temperatura (degC), Point: (29.61, 375)Temperatura (degC), Point: (29.99, 375)Temperatura (degC), Point: (0, 437.5)Temperatura (degC), Point: (15, 437.5)Temperatura (degC), Point: (28.051, 437.5)Temperatura (degC), Point: (29.025, 437.5)Temperatura (degC), Point: (29.61, 437.5)Temperatura (degC), Point: (29.99, 437.5)Temperatura (degC), Point: (0, 468.75)Temperatura (degC), Point: (15, 468.75)Temperatura (degC), Point: (28.051, 468.75)Temperatura (degC), Point: (29.025, 468.75)Temperatura (degC), Point: (29.61, 468.75)Temperatura (degC), Point: (29.99, 468.75)Temperatura (degC), Point: (0, 492.19)Temperatura (degC), Point: (15, 492.19)Temperatura (degC), Point: (28.051, 492.19)Temperatura (degC), Point: (29.025, 492.19)Temperatura (degC), Point: (29.61, 492.19)Temperatura (degC), Point: (29.99, 492.19)
20.000                   1.5000                   2.0000                   10000                    4000.0                   0.0000                   20.000                   20.000                   20.000                   20.002                   20.344                   21.042                   20.000                   20.000                   20.000                   20.002                   20.365                   21.078                   20.000                   20.000                   20.000                   20.002                   20.377                   21.101                   20.000                   20.000                   20.000                   20.002                   20.370                   21.086                   20.000                   20.000                   20.000                   20.002                   20.345                   21.045                   20.000                   20.000                   20.000                   20.002                   20.359                   21.068                   20.000                   20.000                   20.000                   20.002                   20.377                   21.099                   20.000                   20.000                   20.000                   20.002                   20.373                   21.093                   20.000                   20.000                   20.000                   20.002                   20.369                   21.085                   20.000                   20.000                   20.000                   20.002                   20.342                   21.038
20.000                   1.5000                   2.0000                   10000                    4000.0                   5.0000                   39.252                   122.21                   721.42                   864.95                   936.69                   953.47                   39.231                   122.76                   722.62                   867.91                   940.50                   957.48                   39.419                   124.24                   755.46                   915.82                   989.52                   1005.9                   39.246                   123.03                   732.06                   881.97                   955.10                   971.99                   39.120                   122.10                   713.87                   854.19                   925.61                   942.45                   39.223                   122.85                   726.39                   872.90                   945.33                   962.19                   39.467                   124.34                   749.86                   907.70                   981.38                   997.86                   39.332                   123.54                   740.88                   895.23                   968.79                   985.49                   39.193                   122.66                   724.27                   870.96                   943.81                   960.82                   45.550                   129.75                   655.03                   758.05                   815.14                   829.95
20.000                   1.5000                   2.0000                   10000                    4000.0                   10.000                   158.35                   314.57                   1141.7                   1197.3                   1210.4                   1210.8                   158.51                   315.10                   916.59                   978.70                   1003.6                   1008.6                   160.28                   327.58                   1186.5                   1224.6                   1232.8                   1232.2                   159.07                   318.09                   992.89                   1058.7                   1078.7                   1081.4                   157.94                   313.24                   1115.7                   1175.9                   1190.4                   1191.1                   158.86                   315.05                   886.19                   944.93                   970.57                   976.20                   160.30                   326.17                   1170.9                   1212.0                   1221.0                   1220.6                   159.57                   322.31                   1137.6                   1186.2                   1197.6                   1197.7                   158.77                   321.28                   1170.0                   1213.5                   1223.1                   1222.8                   165.07                   312.58                   819.02                   889.82                   923.98                   931.92
20.000                   1.5000                   2.0000                   10000                    4000.0                   15.000                   299.44                   465.43                   1139.0                   1165.9                   1171.5                   1170.6                   300.18                   464.68                   1053.3                   1090.7                   1100.3                   1100.6                   304.39                   482.27                   1161.3                   1182.4                   1186.2                   1185.0                   301.47                   468.69                   1083.4                   1116.4                   1124.2                   1124.1                   298.78                   463.76                   1129.8                   1158.2                   1164.1                   1163.4                   300.59                   463.77                   1025.7                   1065.7                   1077.2                   1078.1                   304.10                   480.37                   1158.7                   1180.8                   1185.0                   1183.8                   302.64                   476.78                   1164.4                   1187.8                   1192.3                   1191.2                   301.89                   478.55                   1170.1                   1191.5                   1195.4                   1194.1                   298.49                   446.52                   901.10                   951.58                   975.27                   980.59
20.000                   1.5000                   2.0000                   10000                    4000.0                   20.000                   418.38                   576.08                   1131.1                   1148.9                   1152.1                   1150.9                   419.39                   576.78                   1124.8                   1143.6                   1147.2                   1146.1                   424.14                   590.85                   1154.7                   1169.6                   1171.9                   1170.4                   420.86                   580.16                   1131.4                   1149.3                   1152.6                   1151.4                   417.74                   574.95                   1129.2                   1147.3                   1150.6                   1149.5                   419.66                   575.48                   1117.9                   1137.6                   1141.4                   1140.4                   423.70                   589.42                   1153.4                   1168.5                   1170.9                   1169.5                   422.08                   587.33                   1157.8                   1173.0                   1175.3                   1173.9                   421.72                   590.14                   1160.9                   1175.2                   1177.3                   1175.8                   410.48                   550.15                   1024.6                   1061.8                   1073.5                   1074.5
20.000                   1.5000                   2.0000                   10000                    4000.0                   25.000                   510.35                   656.96                   1146.9                   1159.3                   1161.0                   1159.5                   511.44                   659.09                   1151.7                   1164.1                   1165.8                   1164.3                   515.75                   669.63                   1167.0                   1178.0                   1179.3                   1177.6                   512.81                   661.78                   1155.7                   1167.7                   1169.3                   1167.7                   509.82                   656.47                   1146.6                   1159.1                   1160.8                   1159.3                   511.58                   657.84                   1147.7                   1160.4                   1162.2                   1160.7                   515.28                   668.50                   1166.0                   1177.2                   1178.4                   1176.8                   513.69                   666.56                   1166.1                   1177.3                   1178.6                   1177.0                   513.43                   669.19                   1167.5                   1178.3                   1179.5                   1177.8                   499.13                   634.02                   1132.3                   1150.3                   1153.6                   1152.4
20.000                   1.5000                   2.0000                   10000                    4000.0                   30.000                   587.29                   723.91                   1166.4                   1175.3                   1175.9                   1174.1                   588.36                   727.25                   1173.9                   1182.8                   1183.4                   1181.6                   591.98                   735.35                   1184.4                   1192.8                   1193.2                   1191.4                   589.51                   729.45                   1177.1                   1185.8                   1186.4                   1184.6                   586.88                   723.92                   1166.6                   1175.5                   1176.1                   1174.3                   588.41                   725.97                   1170.9                   1179.8                   1180.5                   1178.7                   591.52                   734.32                   1183.4                   1191.9                   1192.4                   1190.5                   590.04                   732.41                   1181.7                   1190.2                   1190.7                   1188.9                   589.72                   734.59                   1181.8                   1190.1                   1190.5                   1188.7                   575.79                   708.63                   1188.4                   1198.6                   1199.5                   1197.7
20.000                   1.5000                   2.0000                   10000                    4000.0                   35.000                   649.24                   787.38                   1188.7                   1195.4                   1195.3                   1193.4                   650.18                   790.99                   1196.7                   1203.5                   1203.5                   1201.5                   653.07                   798.76                   1205.9                   1212.6                   1212.6                   1210.5                   651.09                   793.22                   1199.7                   1206.5                   1206.4                   1204.4                   648.89                   786.86                   1188.9                   1195.6                   1195.6                   1193.6                   650.15                   789.52                   1194.0                   1200.8                   1200.8                   1198.8                   652.65                   797.71                   1204.9                   1211.7                   1211.7                   1209.6                   651.34                   795.74                   1202.4                   1209.2                   1209.2                   1207.2                   651.01                   797.00                   1201.6                   1208.3                   1208.3                   1206.2                   640.17                   782.44                   1232.2                   1239.3                   1239.2                   1237.1
20.000                   1.5000                   2.0000                   10000                    4000.0                   40.000                   693.43                   856.71                   1215.3                   1220.9                   1220.4                   1218.2                   694.05                   860.42                   1223.6                   1229.4                   1229.0                   1226.8                   696.27                   867.85                   1232.8                   1238.6                   1238.2                   1235.9                   694.75                   862.62                   1226.6                   1232.4                   1231.9                   1229.8                   692.96                   856.05                   1215.5                   1221.1                   1220.6                   1218.5                   693.97                   859.07                   1220.9                   1226.6                   1226.2                   1224.0                   695.93                   866.78                   1231.8                   1237.6                   1237.2                   1235.0                   694.93                   864.46                   1229.0                   1234.8                   1234.4                   1232.2                   694.74                   865.40                   1228.3                   1234.0                   1233.5                   1231.3                   688.82                   870.18                   1274.4                   1280.2                   1279.6                   1277.2
20.000                   1.5000                   2.0000                   10000                    4000.0                   45.000                   735.55                   925.74                   1245.8                   1250.4                   1249.6                   1247.2                   736.31                   929.37                   1254.3                   1259.2                   1258.4                   1256.1                   738.89                   936.21                   1263.6                   1268.6                   1267.8                   1265.4                   737.08                   931.42                   1257.3                   1262.3                   1261.5                   1259.1                   734.98                   925.04                   1246.0                   1250.6                   1249.8                   1247.4                   736.15                   928.16                   1251.6                   1256.4                   1255.6                   1253.3                   738.46                   935.18                   1262.6                   1267.6                   1266.8                   1264.4                   737.26                   932.72                   1259.5                   1264.5                   1263.7                   1261.3                   737.80                   934.21                   1259.5                   1264.3                   1263.5                   1261.2                   739.75                   956.69                   1317.4                   1322.1                   1321.0                   1318.3
