% Model:              batchmodel_COIL_N_20_COIL_kr_2.25_COIL_kh_2_FUNZ_freq_6000_FUNZ_I_eff_4000.mph
% Version:            COMSOL 6.0.0.318
% Date:               Feb 9 2022, 02:54
% Table:              Tabella 1 - GRIGLIA_T
% COIL_N                 COIL_kr                  COIL_kh                  FUNZ_freq                FUNZ_I_eff               Time (s)                 Temperatura (degC), Point: (0, 0)Temperatura (degC), Point: (15, 0)Temperatura (degC), Point: (27.483, 0)Temperatura (degC), Point: (28.742, 0)Temperatura (degC), Point: (29.497, 0)Temperatura (degC), Point: (29.99, 0)Temperatura (degC), Point: (0, 62.5)Temperatura (degC), Point: (15, 62.5)Temperatura (degC), Point: (27.483, 62.5)Temperatura (degC), Point: (28.742, 62.5)Temperatura (degC), Point: (29.497, 62.5)Temperatura (degC), Point: (29.99, 62.5)Temperatura (degC), Point: (0, 125)Temperatura (degC), Point: (15, 125)Temperatura (degC), Point: (27.483, 125)Temperatura (degC), Point: (28.742, 125)Temperatura (degC), Point: (29.497, 125)Temperatura (degC), Point: (29.99, 125)Temperatura (degC), Point: (0, 187.5)Temperatura (degC), Point: (15, 187.5)Temperatura (degC), Point: (27.483, 187.5)Temperatura (degC), Point: (28.742, 187.5)Temperatura (degC), Point: (29.497, 187.5)Temperatura (degC), Point: (29.99, 187.5)Temperatura (degC), Point: (0, 250)Temperatura (degC), Point: (15, 250)Temperatura (degC), Point: (27.483, 250)Temperatura (degC), Point: (28.742, 250)Temperatura (degC), Point: (29.497, 250)Temperatura (degC), Point: (29.99, 250)Temperatura (degC), Point: (0, 312.5)Temperatura (degC), Point: (15, 312.5)Temperatura (degC), Point: (27.483, 312.5)Temperatura (degC), Point: (28.742, 312.5)Temperatura (degC), Point: (29.497, 312.5)Temperatura (degC), Point: (29.99, 312.5)Temperatura (degC), Point: (0, 375)Temperatura (degC), Point: (15, 375)Temperatura (degC), Point: (27.483, 375)Temperatura (degC), Point: (28.742, 375)Temperatura (degC), Point: (29.497, 375)Temperatura (degC), Point: (29.99, 375)Temperatura (degC), Point: (0, 437.5)Temperatura (degC), Point: (15, 437.5)Temperatura (degC), Point: (27.483, 437.5)Temperatura (degC), Point: (28.742, 437.5)Temperatura (degC), Point: (29.497, 437.5)Temperatura (degC), Point: (29.99, 437.5)Temperatura (degC), Point: (0, 468.75)Temperatura (degC), Point: (15, 468.75)Temperatura (degC), Point: (27.483, 468.75)Temperatura (degC), Point: (28.742, 468.75)Temperatura (degC), Point: (29.497, 468.75)Temperatura (degC), Point: (29.99, 468.75)Temperatura (degC), Point: (0, 492.19)Temperatura (degC), Point: (15, 492.19)Temperatura (degC), Point: (27.483, 492.19)Temperatura (degC), Point: (28.742, 492.19)Temperatura (degC), Point: (29.497, 492.19)Temperatura (degC), Point: (29.99, 492.19)
20.000                   2.2500                   2.0000                   6000.0                   4000.0                   0.0000                   20.000                   20.000                   20.000                   20.000                   20.200                   20.646                   20.000                   20.000                   20.000                   20.000                   20.200                   20.647                   20.000                   20.000                   20.000                   20.000                   20.201                   20.649                   20.000                   20.000                   20.000                   20.000                   20.200                   20.648                   20.000                   20.000                   20.000                   20.000                   20.200                   20.646                   20.000                   20.000                   20.000                   20.000                   20.200                   20.647                   20.000                   20.000                   20.000                   20.000                   20.201                   20.649                   20.000                   20.000                   20.000                   20.000                   20.200                   20.647                   20.000                   20.000                   20.000                   20.000                   20.193                   20.634                   20.000                   20.000                   20.000                   20.000                   20.158                   20.565
20.000                   2.2500                   2.0000                   6000.0                   4000.0                   5.0000                   35.285                   99.958                   498.94                   595.90                   647.63                   661.48                   35.005                   98.568                   493.17                   589.74                   641.51                   655.34                   35.234                   99.875                   500.54                   598.34                   649.99                   663.75                   35.167                   99.499                   498.60                   596.09                   648.17                   662.01                   35.033                   98.796                   495.32                   592.73                   644.43                   658.17                   35.139                   99.450                   498.88                   596.98                   649.09                   662.89                   35.354                   100.78                   508.05                   606.10                   657.72                   671.56                   34.945                   98.331                   490.17                   585.64                   636.75                   650.43                   34.136                   93.860                   459.00                   546.06                   593.23                   606.06                   45.858                   98.504                   383.15                   444.52                   480.29                   490.61
20.000                   2.2500                   2.0000                   6000.0                   4000.0                   10.000                   134.25                   269.57                   868.39                   1018.8                   1073.9                   1083.4                   133.27                   267.70                   833.90                   968.30                   1023.8                   1035.1                   134.30                   269.82                   920.38                   1075.4                   1121.1                   1127.6                   134.16                   269.49                   854.77                   995.20                   1049.6                   1059.8                   133.60                   268.44                   855.77                   998.91                   1053.9                   1064.1                   134.15                   269.43                   847.76                   984.90                   1039.5                   1050.1                   135.19                   271.74                   928.93                   1080.5                   1124.4                   1130.5                   132.45                   266.19                   887.09                   1045.4                   1097.6                   1105.7                   127.19                   253.81                   770.18                   902.97                   964.20                   977.69                   133.12                   246.54                   639.03                   712.79                   752.22                   762.54
20.000                   2.2500                   2.0000                   6000.0                   4000.0                   15.000                   266.80                   423.84                   1114.0                   1172.8                   1185.9                   1185.8                   265.78                   419.59                   895.15                   954.45                   979.20                   984.14                   267.56                   429.53                   1155.5                   1204.5                   1214.9                   1214.1                   267.14                   424.43                   1044.2                   1109.5                   1126.0                   1127.0                   266.32                   423.37                   1070.5                   1133.6                   1148.5                   1149.0                   267.05                   423.06                   988.82                   1057.5                   1077.6                   1079.8                   269.01                   431.89                   1146.3                   1194.6                   1204.8                   1204.0                   264.67                   424.15                   1109.6                   1164.7                   1177.1                   1176.9                   253.55                   400.49                   1042.2                   1126.9                   1148.5                   1150.2                   249.57                   377.93                   746.32                   813.19                   848.25                   856.68
20.000                   2.2500                   2.0000                   6000.0                   4000.0                   20.000                   386.27                   542.29                   1114.0                   1146.9                   1153.4                   1152.2                   385.39                   536.48                   986.79                   1030.3                   1044.4                   1045.9                   388.33                   552.85                   1168.8                   1195.3                   1199.8                   1198.0                   387.08                   543.72                   1101.5                   1137.1                   1144.9                   1144.1                   385.98                   542.24                   1110.2                   1144.8                   1152.1                   1151.1                   386.94                   541.22                   1063.0                   1102.2                   1111.5                   1111.2                   390.11                   554.97                   1157.8                   1184.2                   1188.8                   1187.1                   384.87                   544.15                   1123.6                   1155.7                   1162.2                   1161.0                   369.38                   521.51                   1142.4                   1179.5                   1187.0                   1185.8                   355.40                   479.03                   823.50                   885.77                   916.45                   923.35
20.000                   2.2500                   2.0000                   6000.0                   4000.0                   25.000                   482.43                   629.12                   1113.1                   1135.4                   1139.3                   1137.7                   481.59                   624.23                   1076.2                   1103.7                   1109.5                   1108.5                   485.12                   640.55                   1151.1                   1169.1                   1171.6                   1169.6                   483.46                   631.20                   1115.8                   1138.3                   1142.3                   1140.8                   482.06                   628.73                   1114.7                   1137.6                   1141.7                   1140.2                   483.29                   628.65                   1099.9                   1123.9                   1128.4                   1127.0                   487.01                   642.55                   1145.3                   1163.2                   1165.7                   1163.7                   481.27                   630.43                   1123.3                   1145.1                   1148.9                   1147.2                   465.32                   614.89                   1154.5                   1176.4                   1179.8                   1177.9                   442.14                   557.25                   880.09                   932.22                   957.24                   962.56
20.000                   2.2500                   2.0000                   6000.0                   4000.0                   30.000                   560.71                   696.59                   1124.7                   1140.3                   1142.4                   1140.4                   559.88                   692.94                   1114.2                   1131.2                   1133.7                   1132.0                   563.33                   706.23                   1144.0                   1157.4                   1158.7                   1156.5                   561.71                   698.33                   1127.4                   1142.8                   1144.8                   1142.9                   560.14                   695.54                   1124.9                   1140.8                   1143.0                   1141.1                   561.60                   696.43                   1121.5                   1137.4                   1139.6                   1137.7                   565.23                   708.41                   1142.4                   1155.6                   1156.9                   1154.7                   559.51                   696.87                   1129.2                   1144.6                   1146.6                   1144.6                   544.77                   687.42                   1153.9                   1168.7                   1170.3                   1168.1                   514.25                   620.98                   928.92                   969.70                   988.74                   992.48
20.000                   2.2500                   2.0000                   6000.0                   4000.0                   35.000                   625.70                   754.32                   1138.5                   1149.5                   1150.2                   1148.0                   624.90                   751.44                   1135.9                   1147.2                   1148.1                   1145.9                   627.85                   762.39                   1147.6                   1157.6                   1158.0                   1155.7                   626.52                   755.78                   1140.3                   1151.1                   1151.8                   1149.6                   624.99                   752.62                   1138.1                   1149.2                   1150.0                   1147.8                   626.51                   754.51                   1138.2                   1149.1                   1149.9                   1147.7                   629.64                   764.89                   1147.8                   1157.6                   1158.0                   1155.6                   624.48                   753.79                   1140.1                   1151.0                   1151.8                   1149.5                   611.79                   747.76                   1155.5                   1166.0                   1166.4                   1164.1                   576.99                   676.24                   993.07                   1026.5                   1038.6                   1039.9
20.000                   2.2500                   2.0000                   6000.0                   4000.0                   40.000                   677.27                   811.86                   1152.4                   1160.2                   1160.0                   1157.6                   676.52                   810.20                   1151.8                   1159.7                   1159.6                   1157.1                   678.83                   818.79                   1156.8                   1164.2                   1163.9                   1161.4                   677.84                   813.75                   1153.5                   1161.3                   1161.1                   1158.6                   676.51                   810.33                   1151.8                   1159.8                   1159.6                   1157.2                   677.92                   813.12                   1152.7                   1160.5                   1160.3                   1157.9                   680.44                   821.71                   1157.5                   1164.8                   1164.5                   1162.0                   676.19                   811.20                   1152.7                   1160.6                   1160.4                   1158.0                   665.81                   805.28                   1159.0                   1166.7                   1166.4                   1163.9                   630.25                   725.57                   1080.7                   1102.2                   1106.7                   1105.4
20.000                   2.2500                   2.0000                   6000.0                   4000.0                   45.000                   715.09                   870.46                   1166.7                   1172.5                   1171.6                   1169.0                   714.34                   869.34                   1166.4                   1172.3                   1171.5                   1168.9                   716.08                   875.17                   1169.2                   1174.9                   1174.0                   1171.3                   715.41                   872.01                   1167.5                   1173.3                   1172.4                   1169.8                   714.28                   869.10                   1166.1                   1172.0                   1171.2                   1168.6                   715.53                   871.90                   1167.1                   1172.9                   1172.1                   1169.5                   717.45                   877.92                   1170.0                   1175.5                   1174.6                   1172.0                   714.00                   869.39                   1166.5                   1172.4                   1171.6                   1169.0                   705.41                   861.03                   1166.5                   1172.4                   1171.6                   1169.0                   673.04                   780.62                   1133.3                   1145.7                   1146.8                   1144.7
20.000                   2.2500                   2.0000                   6000.0                   4000.0                   50.000                   746.28                   927.40                   1181.5                   1185.8                   1184.5                   1181.7                   745.24                   926.38                   1181.4                   1185.8                   1184.4                   1181.7                   746.80                   930.02                   1183.1                   1187.4                   1186.0                   1183.2                   746.30                   928.40                   1182.2                   1186.5                   1185.2                   1182.4                   745.14                   926.05                   1181.0                   1185.4                   1184.1                   1181.3                   746.50                   928.60                   1182.0                   1186.3                   1185.0                   1182.2                   748.33                   932.49                   1183.9                   1188.1                   1186.7                   1183.9                   744.86                   925.93                   1181.1                   1185.5                   1184.1                   1181.4                   736.29                   914.21                   1176.7                   1181.2                   1179.9                   1177.2                   709.05                   845.20                   1168.1                   1175.6                   1175.1                   1172.5
20.000                   2.2500                   2.0000                   6000.0                   4000.0                   55.000                   798.42                   979.95                   1199.0                   1202.3                   1200.6                   1197.6                   797.23                   979.09                   1198.9                   1202.2                   1200.5                   1197.6                   798.98                   981.50                   1200.2                   1203.4                   1201.7                   1198.7                   798.78                   980.77                   1199.6                   1202.9                   1201.2                   1198.2                   797.16                   978.84                   1198.6                   1201.9                   1200.2                   1197.2                   799.16                   981.06                   1199.6                   1202.8                   1201.1                   1198.2                   801.11                   983.62                   1200.9                   1204.1                   1202.4                   1199.4                   796.34                   978.28                   1198.3                   1201.6                   1199.9                   1197.0                   781.10                   963.99                   1190.8                   1194.2                   1192.6                   1189.7                   742.98                   914.61                   1196.9                   1201.9                   1200.6                   1197.7
20.000                   2.2500                   2.0000                   6000.0                   4000.0                   60.000                   859.16                   1029.8                   1218.4                   1220.8                   1218.7                   1215.6                   857.93                   1029.1                   1218.3                   1220.7                   1218.7                   1215.6                   859.65                   1030.6                   1219.2                   1221.6                   1219.6                   1216.5                   859.77                   1030.5                   1219.0                   1221.4                   1219.3                   1216.2                   857.92                   1028.9                   1218.0                   1220.4                   1218.3                   1215.2                   860.27                   1030.8                   1219.0                   1221.3                   1219.3                   1216.2                   862.09                   1032.4                   1220.0                   1222.3                   1220.3                   1217.2                   856.56                   1028.0                   1217.4                   1219.8                   1217.7                   1214.7                   836.08                   1012.0                   1207.3                   1209.8                   1207.8                   1204.8                   791.04                   982.26                   1225.0                   1228.2                   1226.3                   1223.2
20.000                   2.2500                   2.0000                   6000.0                   4000.0                   65.000                   928.35                   1076.7                   1239.9                   1241.6                   1239.2                   1235.9                   927.22                   1076.1                   1239.9                   1241.5                   1239.2                   1235.9                   928.55                   1077.0                   1240.6                   1242.3                   1239.9                   1236.7                   928.98                   1077.3                   1240.6                   1242.2                   1239.8                   1236.6                   927.28                   1076.0                   1239.6                   1241.2                   1238.9                   1235.6                   929.47                   1077.6                   1240.5                   1242.2                   1239.8                   1236.5                   930.79                   1078.5                   1241.3                   1243.0                   1240.6                   1237.3                   925.47                   1074.6                   1238.6                   1240.3                   1237.9                   1234.7                   902.96                   1058.1                   1226.6                   1228.3                   1226.0                   1222.8                   859.46                   1046.6                   1253.2                   1255.2                   1252.8                   1249.5
20.000                   2.2500                   2.0000                   6000.0                   4000.0                   70.000                   992.18                   1119.0                   1263.9                   1264.8                   1262.1                   1258.7                   991.22                   1118.5                   1263.8                   1264.8                   1262.1                   1258.7                   992.18                   1119.2                   1264.5                   1265.5                   1262.8                   1259.4                   992.75                   1119.6                   1264.5                   1265.5                   1262.8                   1259.3                   991.34                   1118.5                   1263.6                   1264.6                   1261.9                   1258.4                   993.17                   1119.8                   1264.5                   1265.4                   1262.7                   1259.3                   994.04                   1120.4                   1265.2                   1266.1                   1263.4                   1260.0                   989.16                   1116.7                   1262.2                   1263.2                   1260.5                   1257.1                   967.77                   1100.8                   1249.4                   1250.4                   1247.8                   1244.5                   936.62                   1102.5                   1282.7                   1283.9                   1281.1                   1277.5
20.000                   2.2500                   2.0000                   6000.0                   4000.0                   75.000                   1048.6                   1158.1                   1288.0                   1288.2                   1285.2                   1281.6                   1047.8                   1157.7                   1287.9                   1288.2                   1285.2                   1281.6                   1048.5                   1158.2                   1288.5                   1288.8                   1285.8                   1282.2                   1049.1                   1158.6                   1288.6                   1288.9                   1285.8                   1282.2                   1048.0                   1157.7                   1287.7                   1288.0                   1285.0                   1281.4                   1049.5                   1158.8                   1288.5                   1288.8                   1285.8                   1282.2                   1050.0                   1159.3                   1289.1                   1289.4                   1286.4                   1282.8                   1045.4                   1155.5                   1285.9                   1286.3                   1283.2                   1279.7                   1025.9                   1140.7                   1273.0                   1273.4                   1270.5                   1267.0                   1006.3                   1152.1                   1310.9                   1311.2                   1308.0                   1304.2