% Model:              batchmodel_COIL_N_20_COIL_kr_2.25_COIL_kh_2_FUNZ_freq_10000_FUNZ_I_eff_4000.mph
% Version:            COMSOL 6.0.0.318
% Date:               Feb 9 2022, 03:19
% Table:              Tabella 1 - GRIGLIA_T
% COIL_N                 COIL_kr                  COIL_kh                  FUNZ_freq                FUNZ_I_eff               Time (s)                 Temperatura (degC), Point: (0, 0)Temperatura (degC), Point: (15, 0)Temperatura (degC), Point: (28.051, 0)Temperatura (degC), Point: (29.025, 0)Temperatura (degC), Point: (29.61, 0)Temperatura (degC), Point: (29.99, 0)Temperatura (degC), Point: (0, 62.5)Temperatura (degC), Point: (15, 62.5)Temperatura (degC), Point: (28.051, 62.5)Temperatura (degC), Point: (29.025, 62.5)Temperatura (degC), Point: (29.61, 62.5)Temperatura (degC), Point: (29.99, 62.5)Temperatura (degC), Point: (0, 125)Temperatura (degC), Point: (15, 125)Temperatura (degC), Point: (28.051, 125)Temperatura (degC), Point: (29.025, 125)Temperatura (degC), Point: (29.61, 125)Temperatura (degC), Point: (29.99, 125)Temperatura (degC), Point: (0, 187.5)Temperatura (degC), Point: (15, 187.5)Temperatura (degC), Point: (28.051, 187.5)Temperatura (degC), Point: (29.025, 187.5)Temperatura (degC), Point: (29.61, 187.5)Temperatura (degC), Point: (29.99, 187.5)Temperatura (degC), Point: (0, 250)Temperatura (degC), Point: (15, 250)Temperatura (degC), Point: (28.051, 250)Temperatura (degC), Point: (29.025, 250)Temperatura (degC), Point: (29.61, 250)Temperatura (degC), Point: (29.99, 250)Temperatura (degC), Point: (0, 312.5)Temperatura (degC), Point: (15, 312.5)Temperatura (degC), Point: (28.051, 312.5)Temperatura (degC), Point: (29.025, 312.5)Temperatura (degC), Point: (29.61, 312.5)Temperatura (degC), Point: (29.99, 312.5)Temperatura (degC), Point: (0, 375)Temperatura (degC), Point: (15, 375)Temperatura (degC), Point: (28.051, 375)Temperatura (degC), Point: (29.025, 375)Temperatura (degC), Point: (29.61, 375)Temperatura (degC), Point: (29.99, 375)Temperatura (degC), Point: (0, 437.5)Temperatura (degC), Point: (15, 437.5)Temperatura (degC), Point: (28.051, 437.5)Temperatura (degC), Point: (29.025, 437.5)Temperatura (degC), Point: (29.61, 437.5)Temperatura (degC), Point: (29.99, 437.5)Temperatura (degC), Point: (0, 468.75)Temperatura (degC), Point: (15, 468.75)Temperatura (degC), Point: (28.051, 468.75)Temperatura (degC), Point: (29.025, 468.75)Temperatura (degC), Point: (29.61, 468.75)Temperatura (degC), Point: (29.99, 468.75)Temperatura (degC), Point: (0, 492.19)Temperatura (degC), Point: (15, 492.19)Temperatura (degC), Point: (28.051, 492.19)Temperatura (degC), Point: (29.025, 492.19)Temperatura (degC), Point: (29.61, 492.19)Temperatura (degC), Point: (29.99, 492.19)
20.000                   2.2500                   2.0000                   10000                    4000.0                   0.0000                   20.000                   20.000                   20.000                   20.002                   20.341                   21.034                   20.000                   20.000                   20.000                   20.002                   20.342                   21.036                   20.000                   20.000                   20.000                   20.002                   20.343                   21.039                   20.000                   20.000                   20.000                   20.002                   20.342                   21.037                   20.000                   20.000                   20.000                   20.002                   20.341                   21.034                   20.000                   20.000                   20.000                   20.002                   20.342                   21.035                   20.000                   20.000                   20.000                   20.002                   20.343                   21.039                   20.000                   20.000                   20.000                   20.002                   20.342                   21.036                   20.000                   20.000                   20.000                   20.001                   20.331                   21.016                   20.000                   20.000                   20.000                   20.001                   20.289                   20.938
20.000                   2.2500                   2.0000                   10000                    4000.0                   5.0000                   37.846                   116.74                   684.71                   813.83                   882.89                   899.78                   37.716                   116.89                   681.62                   805.61                   873.71                   890.65                   37.745                   117.02                   681.83                   808.47                   876.26                   892.77                   37.747                   117.17                   684.45                   809.19                   877.13                   893.91                   37.671                   116.56                   679.19                   802.64                   869.39                   886.01                   37.639                   116.31                   676.56                   801.14                   869.15                   885.76                   37.697                   116.76                   680.72                   807.33                   876.40                   893.18                   37.631                   116.43                   680.47                   806.41                   874.07                   890.73                   37.036                   113.27                   649.20                   759.27                   819.65                   835.54                   41.246                   118.16                   569.21                   650.25                   694.89                   706.95
20.000                   2.2500                   2.0000                   10000                    4000.0                   10.000                   152.88                   307.32                   1096.5                   1163.1                   1179.1                   1180.2                   152.68                   307.97                   1040.3                   1108.1                   1125.4                   1126.9                   152.59                   305.85                   960.64                   1038.6                   1063.9                   1067.7                   152.79                   306.59                   938.53                   1008.7                   1034.5                   1039.0                   152.48                   307.82                   1095.1                   1160.9                   1176.3                   1177.3                   151.96                   306.91                   1112.6                   1179.2                   1194.8                   1195.8                   152.55                   307.29                   971.26                   1041.3                   1063.1                   1066.1                   152.29                   307.42                   1061.1                   1126.2                   1142.5                   1143.9                   148.44                   297.74                   1012.2                   1096.8                   1120.4                   1123.1                   154.13                   294.86                   804.22                   885.24                   924.35                   933.48
20.000                   2.2500                   2.0000                   10000                    4000.0                   15.000                   295.49                   461.53                   1098.6                   1129.3                   1136.1                   1135.7                   295.30                   463.28                   1100.1                   1129.6                   1136.1                   1135.6                   294.76                   458.43                   1043.4                   1083.2                   1093.7                   1094.2                   295.20                   459.19                   1035.8                   1076.6                   1088.3                   1089.2                   295.09                   463.86                   1127.9                   1155.8                   1161.7                   1161.0                   294.54                   465.67                   1154.9                   1179.8                   1184.7                   1183.6                   295.28                   462.88                   1091.3                   1122.1                   1129.1                   1128.7                   294.62                   460.80                   1102.6                   1135.5                   1143.1                   1142.8                   288.56                   454.78                   1119.4                   1147.7                   1153.7                   1153.1                   286.99                   433.75                   905.99                   965.18                   992.83                   998.88
20.000                   2.2500                   2.0000                   10000                    4000.0                   20.000                   414.42                   571.93                   1120.4                   1139.5                   1143.1                   1142.1                   414.09                   573.01                   1123.9                   1142.5                   1146.0                   1144.8                   413.68                   569.56                   1110.1                   1130.9                   1135.1                   1134.2                   414.12                   569.82                   1105.8                   1127.2                   1131.7                   1130.9                   414.08                   573.93                   1130.2                   1148.1                   1151.4                   1150.2                   413.84                   576.76                   1143.3                   1159.7                   1162.4                   1161.1                   414.37                   573.84                   1124.2                   1142.6                   1146.0                   1144.8                   413.07                   569.94                   1120.7                   1140.4                   1144.3                   1143.2                   407.77                   568.35                   1127.8                   1145.7                   1148.9                   1147.8                   398.97                   541.25                   1074.0                   1107.2                   1115.4                   1115.3
20.000                   2.2500                   2.0000                   10000                    4000.0                   25.000                   510.41                   656.57                   1142.4                   1155.0                   1156.8                   1155.3                   509.96                   657.06                   1144.0                   1156.4                   1158.1                   1156.6                   509.87                   655.40                   1141.0                   1153.8                   1155.7                   1154.2                   510.22                   655.36                   1139.7                   1152.7                   1154.6                   1153.1                   510.09                   657.80                   1145.0                   1157.3                   1159.0                   1157.5                   509.98                   659.93                   1149.3                   1161.2                   1162.7                   1161.1                   510.43                   658.32                   1145.3                   1157.6                   1159.3                   1157.8                   508.81                   654.28                   1141.6                   1154.5                   1156.4                   1154.9                   504.50                   653.56                   1142.0                   1154.4                   1156.2                   1154.7                   492.77                   633.13                   1155.9                   1170.2                   1172.3                   1170.8
20.000                   2.2500                   2.0000                   10000                    4000.0                   30.000                   585.37                   721.28                   1161.8                   1170.9                   1171.6                   1169.9                   584.92                   721.82                   1162.5                   1171.5                   1172.3                   1170.5                   585.07                   720.97                   1161.9                   1171.0                   1171.8                   1170.1                   585.31                   721.06                   1161.3                   1170.5                   1171.3                   1169.5                   585.09                   722.16                   1162.6                   1171.6                   1172.3                   1170.6                   584.95                   723.83                   1164.4                   1173.3                   1174.0                   1172.2                   585.43                   722.87                   1163.6                   1172.6                   1173.3                   1171.6                   583.91                   719.68                   1161.0                   1170.2                   1171.0                   1169.3                   580.10                   717.92                   1158.1                   1167.3                   1168.1                   1166.3                   570.34                   709.43                   1194.0                   1203.1                   1203.7                   1201.8
20.000                   2.2500                   2.0000                   10000                    4000.0                   35.000                   646.14                   781.37                   1181.7                   1188.6                   1188.6                   1186.7                   645.73                   781.73                   1182.1                   1189.0                   1189.1                   1187.1                   646.00                   781.50                   1182.3                   1189.3                   1189.3                   1187.4                   646.15                   781.56                   1182.0                   1188.9                   1189.0                   1187.0                   645.90                   781.85                   1181.9                   1188.8                   1188.8                   1186.9                   645.70                   782.79                   1182.7                   1189.6                   1189.6                   1187.6                   646.21                   782.75                   1183.0                   1189.9                   1190.0                   1188.0                   644.82                   779.16                   1180.9                   1187.9                   1188.0                   1186.0                   641.51                   776.43                   1176.0                   1183.0                   1183.1                   1181.2                   635.77                   782.32                   1228.0                   1234.5                   1234.2                   1232.0
20.000                   2.2500                   2.0000                   10000                    4000.0                   40.000                   693.68                   846.11                   1204.5                   1210.1                   1209.7                   1207.6                   693.23                   845.64                   1204.9                   1210.5                   1210.1                   1208.0                   693.56                   846.02                   1205.6                   1211.1                   1210.7                   1208.6                   693.64                   845.94                   1205.2                   1210.8                   1210.3                   1208.2                   693.39                   845.77                   1204.6                   1210.2                   1209.8                   1207.7                   693.13                   846.06                   1205.0                   1210.5                   1210.1                   1208.0                   693.73                   846.74                   1205.8                   1211.4                   1210.9                   1208.8                   692.49                   843.52                   1203.7                   1209.4                   1209.0                   1206.9                   689.64                   839.26                   1197.7                   1203.2                   1202.8                   1200.8                   689.06                   864.16                   1263.5                   1268.6                   1267.7                   1265.3
20.000                   2.2500                   2.0000                   10000                    4000.0                   45.000                   729.70                   911.79                   1231.7                   1236.4                   1235.7                   1233.4                   728.81                   911.31                   1232.1                   1236.9                   1236.1                   1233.8                   729.25                   911.93                   1232.9                   1237.7                   1236.9                   1234.6                   729.31                   911.83                   1232.5                   1237.3                   1236.5                   1234.2                   729.03                   911.45                   1231.8                   1236.6                   1235.8                   1233.5                   728.63                   911.33                   1232.0                   1236.7                   1235.9                   1233.7                   729.57                   912.37                   1233.0                   1237.7                   1237.0                   1234.7                   728.04                   909.37                   1230.7                   1235.5                   1234.8                   1232.5                   725.57                   905.27                   1224.4                   1229.1                   1228.4                   1226.1                   732.39                   947.05                   1301.2                   1305.3                   1304.1                   1301.4
