% Model:              batchmodel_COIL_N_20_COIL_kr_1.5_COIL_kh_1.5_FUNZ_freq_6000_FUNZ_I_eff_4000.mph
% Version:            COMSOL 6.0.0.318
% Date:               Feb 9 2022, 01:08
% Table:              Tabella 1 - GRIGLIA_T
% COIL_N                 COIL_kr                  COIL_kh                  FUNZ_freq                FUNZ_I_eff               Time (s)                 Temperatura (degC), Point: (0, 0)Temperatura (degC), Point: (15, 0)Temperatura (degC), Point: (27.483, 0)Temperatura (degC), Point: (28.742, 0)Temperatura (degC), Point: (29.497, 0)Temperatura (degC), Point: (29.99, 0)Temperatura (degC), Point: (0, 62.5)Temperatura (degC), Point: (15, 62.5)Temperatura (degC), Point: (27.483, 62.5)Temperatura (degC), Point: (28.742, 62.5)Temperatura (degC), Point: (29.497, 62.5)Temperatura (degC), Point: (29.99, 62.5)Temperatura (degC), Point: (0, 125)Temperatura (degC), Point: (15, 125)Temperatura (degC), Point: (27.483, 125)Temperatura (degC), Point: (28.742, 125)Temperatura (degC), Point: (29.497, 125)Temperatura (degC), Point: (29.99, 125)Temperatura (degC), Point: (0, 187.5)Temperatura (degC), Point: (15, 187.5)Temperatura (degC), Point: (27.483, 187.5)Temperatura (degC), Point: (28.742, 187.5)Temperatura (degC), Point: (29.497, 187.5)Temperatura (degC), Point: (29.99, 187.5)Temperatura (degC), Point: (0, 250)Temperatura (degC), Point: (15, 250)Temperatura (degC), Point: (27.483, 250)Temperatura (degC), Point: (28.742, 250)Temperatura (degC), Point: (29.497, 250)Temperatura (degC), Point: (29.99, 250)Temperatura (degC), Point: (0, 312.5)Temperatura (degC), Point: (15, 312.5)Temperatura (degC), Point: (27.483, 312.5)Temperatura (degC), Point: (28.742, 312.5)Temperatura (degC), Point: (29.497, 312.5)Temperatura (degC), Point: (29.99, 312.5)Temperatura (degC), Point: (0, 375)Temperatura (degC), Point: (15, 375)Temperatura (degC), Point: (27.483, 375)Temperatura (degC), Point: (28.742, 375)Temperatura (degC), Point: (29.497, 375)Temperatura (degC), Point: (29.99, 375)Temperatura (degC), Point: (0, 437.5)Temperatura (degC), Point: (15, 437.5)Temperatura (degC), Point: (27.483, 437.5)Temperatura (degC), Point: (28.742, 437.5)Temperatura (degC), Point: (29.497, 437.5)Temperatura (degC), Point: (29.99, 437.5)Temperatura (degC), Point: (0, 468.75)Temperatura (degC), Point: (15, 468.75)Temperatura (degC), Point: (27.483, 468.75)Temperatura (degC), Point: (28.742, 468.75)Temperatura (degC), Point: (29.497, 468.75)Temperatura (degC), Point: (29.99, 468.75)Temperatura (degC), Point: (0, 492.19)Temperatura (degC), Point: (15, 492.19)Temperatura (degC), Point: (27.483, 492.19)Temperatura (degC), Point: (28.742, 492.19)Temperatura (degC), Point: (29.497, 492.19)Temperatura (degC), Point: (29.99, 492.19)
20.000                   1.5000                   1.5000                   6000.0                   4000.0                   0.0000                   20.000                   20.000                   20.000                   20.000                   20.181                   20.610                   20.000                   20.000                   20.000                   20.001                   20.208                   20.663                   20.000                   20.000                   20.000                   20.001                   20.237                   20.718                   20.000                   20.000                   20.000                   20.001                   20.226                   20.696                   20.000                   20.000                   20.000                   20.000                   20.187                   20.623                   20.000                   20.000                   20.000                   20.000                   20.190                   20.628                   20.000                   20.000                   20.000                   20.001                   20.228                   20.701                   20.000                   20.000                   20.000                   20.001                   20.236                   20.716                   20.000                   20.000                   20.000                   20.000                   20.201                   20.648                   20.000                   20.000                   20.000                   20.001                   20.217                   20.678
20.000                   1.5000                   1.5000                   6000.0                   4000.0                   5.0000                   35.755                   96.777                   469.82                   560.49                   611.06                   624.78                   36.291                   100.07                   493.69                   589.26                   641.97                   656.21                   36.673                   102.43                   513.46                   615.12                   669.45                   683.76                   36.453                   101.16                   504.62                   604.89                   658.27                   672.23                   35.981                   98.280                   480.13                   573.40                   624.69                   638.35                   35.999                   98.269                   480.97                   574.21                   626.59                   640.69                   36.467                   101.34                   506.34                   605.85                   658.53                   672.63                   36.619                   102.23                   512.03                   613.29                   666.40                   680.03                   36.022                   98.570                   483.45                   576.66                   628.52                   642.54                   39.828                   105.66                   468.12                   553.70                   601.31                   614.22
20.000                   1.5000                   1.5000                   6000.0                   4000.0                   10.000                   133.50                   263.18                   769.08                   885.15                   939.36                   951.42                   135.61                   268.85                   802.75                   921.39                   973.41                   984.58                   136.80                   275.09                   1057.6                   1177.9                   1208.1                   1211.0                   136.09                   271.69                   882.57                   1018.1                   1065.3                   1073.4                   134.50                   265.39                   778.52                   895.56                   949.27                   961.11                   134.39                   265.40                   781.88                   899.90                   953.65                   965.45                   136.12                   272.22                   919.55                   1058.9                   1102.2                   1108.7                   136.63                   274.50                   1037.0                   1162.1                   1193.9                   1197.3                   134.14                   265.10                   803.74                   932.21                   988.36                   1000.4                   141.71                   272.20                   736.33                   835.79                   885.63                   897.28
20.000                   1.5000                   1.5000                   6000.0                   4000.0                   15.000                   262.67                   406.17                   856.39                   934.40                   969.64                   977.17                   267.13                   420.40                   951.31                   1026.3                   1051.8                   1055.6                   271.52                   445.03                   1224.6                   1262.6                   1269.8                   1268.1                   269.25                   432.37                   1121.1                   1174.8                   1187.1                   1186.9                   264.33                   409.97                   862.04                   936.58                   969.96                   977.02                   264.32                   410.68                   866.31                   940.17                   973.12                   980.07                   269.61                   435.06                   1150.5                   1199.2                   1210.0                   1209.3                   271.08                   443.14                   1213.7                   1253.2                   1260.8                   1259.3                   264.00                   416.91                   1012.9                   1085.1                   1105.4                   1107.4                   268.75                   411.68                   819.06                   883.49                   914.36                   921.35
20.000                   1.5000                   1.5000                   6000.0                   4000.0                   20.000                   379.86                   516.23                   896.78                   950.09                   974.56                   979.62                   387.99                   541.32                   1084.5                   1126.4                   1136.2                   1135.8                   397.27                   578.70                   1218.8                   1238.6                   1241.1                   1238.7                   392.78                   560.90                   1177.1                   1203.4                   1208.0                   1206.2                   382.45                   522.69                   927.75                   979.06                   1001.2                   1005.4                   382.74                   524.36                   943.59                   996.15                   1017.1                   1020.8                   393.67                   564.90                   1188.3                   1212.8                   1216.8                   1214.9                   396.46                   575.89                   1214.5                   1235.1                   1237.9                   1235.6                   384.02                   540.86                   1118.3                   1153.6                   1161.2                   1160.2                   383.08                   521.64                   902.76                   951.64                   972.83                   977.06
20.000                   1.5000                   1.5000                   6000.0                   4000.0                   25.000                   479.62                   605.21                   943.01                   978.88                   994.58                   997.44                   490.86                   637.63                   1138.5                   1161.6                   1165.7                   1164.1                   503.97                   679.33                   1206.2                   1218.9                   1219.6                   1217.0                   497.85                   660.51                   1187.2                   1203.1                   1204.8                   1202.5                   483.01                   613.81                   1010.1                   1049.2                   1061.2                   1062.0                   483.58                   616.23                   1032.2                   1069.4                   1080.0                   1080.3                   499.15                   664.82                   1192.3                   1207.3                   1208.8                   1206.4                   502.83                   676.07                   1204.9                   1218.1                   1219.0                   1216.5                   486.89                   638.77                   1148.8                   1169.7                   1173.1                   1171.3                   480.68                   610.85                   997.01                   1035.7                   1048.3                   1049.3
20.000                   1.5000                   1.5000                   6000.0                   4000.0                   30.000                   562.78                   677.30                   1028.3                   1056.1                   1063.9                   1063.8                   575.90                   712.39                   1151.0                   1165.4                   1167.0                   1164.9                   591.04                   755.31                   1196.5                   1205.6                   1205.5                   1202.9                   584.15                   736.21                   1182.6                   1193.4                   1193.8                   1191.3                   566.68                   686.85                   1078.8                   1102.0                   1106.9                   1105.7                   567.45                   689.61                   1091.6                   1113.2                   1117.5                   1116.2                   585.64                   740.43                   1186.0                   1196.4                   1196.7                   1194.1                   589.67                   751.81                   1194.8                   1204.2                   1204.2                   1201.6                   572.15                   713.48                   1151.8                   1165.3                   1166.7                   1164.5                   562.16                   682.55                   1080.6                   1106.8                   1112.8                   1111.8
20.000                   1.5000                   1.5000                   6000.0                   4000.0                   35.000                   631.48                   739.06                   1098.4                   1115.3                   1117.6                   1115.8                   644.61                   777.98                   1158.3                   1167.6                   1167.8                   1165.4                   659.70                   825.04                   1193.7                   1200.5                   1199.8                   1197.1                   652.91                   804.82                   1181.2                   1188.9                   1188.5                   1185.8                   635.34                   749.14                   1120.2                   1133.2                   1134.6                   1132.6                   636.17                   752.33                   1126.0                   1138.3                   1139.5                   1137.4                   654.40                   809.26                   1184.0                   1191.5                   1191.0                   1188.3                   658.27                   820.98                   1191.5                   1198.5                   1197.9                   1195.2                   641.15                   777.72                   1155.1                   1164.2                   1164.3                   1161.9                   629.70                   745.43                   1142.2                   1157.2                   1159.0                   1156.9
20.000                   1.5000                   1.5000                   6000.0                   4000.0                   40.000                   679.63                   800.77                   1130.2                   1139.9                   1140.3                   1138.1                   690.62                   839.92                   1168.8                   1175.8                   1175.3                   1172.7                   703.14                   884.16                   1200.1                   1205.8                   1204.8                   1202.0                   697.61                   865.44                   1188.1                   1194.2                   1193.3                   1190.6                   682.83                   811.46                   1142.3                   1151.0                   1151.0                   1148.7                   683.54                   814.60                   1145.9                   1154.3                   1154.2                   1151.9                   698.80                   869.54                   1190.7                   1196.7                   1195.8                   1193.0                   701.94                   880.13                   1198.0                   1203.8                   1202.8                   1200.0                   687.63                   837.34                   1164.9                   1171.7                   1171.2                   1168.6                   678.42                   816.02                   1183.3                   1192.6                   1192.6                   1190.1
20.000                   1.5000                   1.5000                   6000.0                   4000.0                   45.000                   716.93                   865.71                   1154.6                   1160.6                   1159.9                   1157.3                   726.74                   900.06                   1182.4                   1187.6                   1186.5                   1183.7                   738.85                   937.67                   1210.7                   1215.4                   1214.1                   1211.2                   733.42                   921.68                   1199.2                   1204.0                   1202.8                   1200.0                   719.60                   875.53                   1162.3                   1168.1                   1167.2                   1164.6                   720.25                   878.17                   1164.8                   1170.4                   1169.5                   1166.9                   734.58                   925.13                   1201.6                   1206.4                   1205.2                   1202.3                   737.60                   934.16                   1208.7                   1213.5                   1212.2                   1209.3                   723.79                   895.84                   1178.1                   1183.2                   1182.1                   1179.3                   717.46                   893.23                   1219.1                   1225.5                   1224.5                   1221.6
20.000                   1.5000                   1.5000                   6000.0                   4000.0                   50.000                   754.08                   929.95                   1176.2                   1180.1                   1178.7                   1175.9                   766.18                   957.43                   1199.1                   1203.0                   1201.5                   1198.6                   781.78                   987.91                   1225.2                   1229.2                   1227.5                   1224.5                   774.66                   974.82                   1214.3                   1218.2                   1216.6                   1213.6                   757.31                   937.87                   1182.3                   1186.2                   1184.7                   1181.9                   758.10                   939.90                   1184.2                   1188.1                   1186.6                   1183.8                   776.17                   977.60                   1216.5                   1220.5                   1218.9                   1215.9                   780.09                   985.11                   1223.5                   1227.4                   1225.9                   1222.8                   762.09                   952.68                   1194.9                   1198.6                   1197.1                   1194.2                   760.47                   970.79                   1253.0                   1257.6                   1256.0                   1252.8
20.000                   1.5000                   1.5000                   6000.0                   4000.0                   55.000                   804.80                   990.32                   1198.2                   1200.8                   1198.9                   1195.9                   821.58                   1011.6                   1219.0                   1221.9                   1219.9                   1216.9                   841.90                   1035.9                   1243.5                   1246.8                   1244.9                   1241.7                   832.69                   1025.4                   1233.1                   1236.2                   1234.3                   1231.2                   809.58                   996.41                   1203.6                   1206.3                   1204.3                   1201.3                   810.62                   997.95                   1205.3                   1208.0                   1206.1                   1203.1                   834.61                   1027.5                   1235.2                   1238.3                   1236.5                   1233.3                   839.73                   1033.8                   1242.0                   1245.3                   1243.4                   1240.2                   815.83                   1007.6                   1215.3                   1218.0                   1216.1                   1213.0                   822.93                   1043.7                   1286.9                   1290.4                   1288.4                   1284.9
20.000                   1.5000                   1.5000                   6000.0                   4000.0                   60.000                   877.59                   1046.0                   1222.1                   1223.7                   1221.4                   1218.2                   894.99                   1062.7                   1241.6                   1243.8                   1241.5                   1238.3                   914.22                   1081.8                   1265.2                   1267.8                   1265.6                   1262.3                   905.69                   1073.4                   1255.1                   1257.5                   1255.3                   1252.0                   882.80                   1050.8                   1227.1                   1228.9                   1226.6                   1223.4                   883.83                   1051.9                   1228.7                   1230.5                   1228.2                   1225.0                   907.46                   1075.1                   1257.1                   1259.6                   1257.4                   1254.1                   912.32                   1080.2                   1263.9                   1266.5                   1264.3                   1261.0                   889.72                   1060.3                   1239.2                   1241.1                   1238.8                   1235.6                   910.28                   1109.3                   1321.8                   1324.3                   1321.8                   1318.1
20.000                   1.5000                   1.5000                   6000.0                   4000.0                   65.000                   954.55                   1096.3                   1248.3                   1249.2                   1246.5                   1243.1                   968.53                   1109.7                   1267.1                   1268.5                   1266.0                   1262.5                   983.85                   1125.3                   1289.8                   1291.8                   1289.3                   1285.8                   976.98                   1118.4                   1280.1                   1281.8                   1279.3                   1275.8                   958.80                   1100.1                   1253.2                   1254.2                   1251.5                   1248.1                   959.59                   1101.0                   1254.7                   1255.7                   1253.1                   1249.7                   978.37                   1119.7                   1282.0                   1283.8                   1281.3                   1277.8                   982.43                   1124.1                   1288.7                   1290.6                   1288.1                   1284.6                   966.26                   1110.0                   1266.6                   1267.7                   1265.1                   1261.6                   998.14                   1167.5                   1356.2                   1357.7                   1354.6                   1350.7
