% Model:              batchmodel_COIL_N_20_COIL_kr_3_COIL_kh_2_FUNZ_freq_6000_FUNZ_I_eff_2500.mph
% Version:            COMSOL 6.0.0.318
% Date:               Feb 9 2022, 04:17
% Table:              Tabella 1 - GRIGLIA_T
% COIL_N                 COIL_kr                  COIL_kh                  FUNZ_freq                FUNZ_I_eff               Time (s)                 Temperatura (degC), Point: (0, 0)Temperatura (degC), Point: (15, 0)Temperatura (degC), Point: (27.483, 0)Temperatura (degC), Point: (28.742, 0)Temperatura (degC), Point: (29.497, 0)Temperatura (degC), Point: (29.99, 0)Temperatura (degC), Point: (0, 62.5)Temperatura (degC), Point: (15, 62.5)Temperatura (degC), Point: (27.483, 62.5)Temperatura (degC), Point: (28.742, 62.5)Temperatura (degC), Point: (29.497, 62.5)Temperatura (degC), Point: (29.99, 62.5)Temperatura (degC), Point: (0, 125)Temperatura (degC), Point: (15, 125)Temperatura (degC), Point: (27.483, 125)Temperatura (degC), Point: (28.742, 125)Temperatura (degC), Point: (29.497, 125)Temperatura (degC), Point: (29.99, 125)Temperatura (degC), Point: (0, 187.5)Temperatura (degC), Point: (15, 187.5)Temperatura (degC), Point: (27.483, 187.5)Temperatura (degC), Point: (28.742, 187.5)Temperatura (degC), Point: (29.497, 187.5)Temperatura (degC), Point: (29.99, 187.5)Temperatura (degC), Point: (0, 250)Temperatura (degC), Point: (15, 250)Temperatura (degC), Point: (27.483, 250)Temperatura (degC), Point: (28.742, 250)Temperatura (degC), Point: (29.497, 250)Temperatura (degC), Point: (29.99, 250)Temperatura (degC), Point: (0, 312.5)Temperatura (degC), Point: (15, 312.5)Temperatura (degC), Point: (27.483, 312.5)Temperatura (degC), Point: (28.742, 312.5)Temperatura (degC), Point: (29.497, 312.5)Temperatura (degC), Point: (29.99, 312.5)Temperatura (degC), Point: (0, 375)Temperatura (degC), Point: (15, 375)Temperatura (degC), Point: (27.483, 375)Temperatura (degC), Point: (28.742, 375)Temperatura (degC), Point: (29.497, 375)Temperatura (degC), Point: (29.99, 375)Temperatura (degC), Point: (0, 437.5)Temperatura (degC), Point: (15, 437.5)Temperatura (degC), Point: (27.483, 437.5)Temperatura (degC), Point: (28.742, 437.5)Temperatura (degC), Point: (29.497, 437.5)Temperatura (degC), Point: (29.99, 437.5)Temperatura (degC), Point: (0, 468.75)Temperatura (degC), Point: (15, 468.75)Temperatura (degC), Point: (27.483, 468.75)Temperatura (degC), Point: (28.742, 468.75)Temperatura (degC), Point: (29.497, 468.75)Temperatura (degC), Point: (29.99, 468.75)Temperatura (degC), Point: (0, 492.19)Temperatura (degC), Point: (15, 492.19)Temperatura (degC), Point: (27.483, 492.19)Temperatura (degC), Point: (28.742, 492.19)Temperatura (degC), Point: (29.497, 492.19)Temperatura (degC), Point: (29.99, 492.19)
20.000                   3.0000                   2.0000                   6000.0                   2500.0                   0.0000                   20.000                   20.000                   20.000                   20.000                   20.074                   20.364                   20.000                   20.000                   20.000                   20.000                   20.074                   20.364                   20.000                   20.000                   20.000                   20.000                   20.074                   20.364                   20.000                   20.000                   20.000                   20.000                   20.074                   20.364                   20.000                   20.000                   20.000                   20.000                   20.074                   20.364                   20.000                   20.000                   20.000                   20.000                   20.074                   20.364                   20.000                   20.000                   20.000                   20.000                   20.074                   20.364                   20.000                   20.000                   20.000                   20.000                   20.073                   20.359                   20.000                   20.000                   20.000                   20.000                   20.067                   20.340                   20.000                   20.000                   20.000                   20.000                   20.048                   20.289
20.000                   3.0000                   2.0000                   6000.0                   2500.0                   5.0000                   26.542                   52.275                   197.77                   226.11                   243.94                   250.13                   26.507                   52.107                   195.82                   223.49                   240.96                   247.02                   26.501                   52.058                   195.45                   223.03                   240.38                   246.49                   26.508                   52.107                   195.68                   223.29                   240.72                   246.88                   26.521                   52.232                   197.94                   226.19                   244.02                   250.24                   26.503                   52.088                   196.08                   223.97                   241.49                   247.57                   26.492                   52.084                   197.44                   225.95                   243.99                   250.20                   26.382                   51.544                   192.73                   219.74                   236.58                   242.58                   25.978                   49.525                   182.79                   208.18                   224.30                   230.05                   29.178                   52.240                   165.29                   184.83                   196.67                   201.17
20.000                   3.0000                   2.0000                   6000.0                   2500.0                   10.000                   70.970                   132.60                   342.59                   379.30                   401.46                   408.51                   70.831                   132.23                   341.64                   378.57                   400.92                   408.02                   70.786                   132.04                   341.07                   377.90                   399.91                   407.00                   70.806                   132.06                   339.99                   376.49                   398.27                   405.18                   70.975                   132.63                   343.00                   380.08                   402.44                   409.36                   70.780                   132.05                   339.96                   376.16                   398.01                   405.05                   70.783                   132.17                   341.46                   378.16                   400.26                   407.21                   69.592                   129.27                   330.28                   365.29                   386.44                   393.19                   67.001                   123.16                   310.45                   342.20                   361.63                   367.82                   75.617                   129.10                   278.53                   299.64                   312.01                   316.83
20.000                   3.0000                   2.0000                   6000.0                   2500.0                   15.000                   143.35                   224.96                   485.46                   531.45                   557.69                   565.32                   143.08                   224.31                   482.24                   527.70                   553.74                   561.36                   142.92                   223.78                   480.12                   525.43                   551.09                   558.61                   142.99                   224.05                   481.54                   527.00                   552.63                   560.11                   143.45                   225.13                   486.01                   532.26                   558.66                   566.20                   142.88                   223.84                   480.08                   524.83                   550.33                   557.88                   142.80                   223.63                   479.32                   524.27                   549.96                   557.48                   139.55                   217.96                   465.61                   509.33                   534.58                   541.92                   133.81                   206.92                   430.94                   468.64                   490.81                   497.48                   142.59                   208.65                   376.28                   400.18                   414.39                   419.27
20.000                   3.0000                   2.0000                   6000.0                   2500.0                   20.000                   227.27                   321.31                   627.77                   684.79                   716.75                   725.44                   226.97                   320.78                   627.93                   685.91                   718.58                   727.34                   226.71                   320.19                   626.24                   683.71                   716.24                   725.03                   226.86                   320.58                   627.91                   685.95                   718.73                   727.53                   227.51                   321.72                   630.29                   688.56                   720.98                   729.73                   226.63                   320.20                   626.97                   684.95                   717.54                   726.29                   226.34                   319.63                   624.95                   682.34                   714.72                   723.43                   220.66                   310.96                   603.16                   656.35                   686.31                   694.55                   210.66                   293.30                   552.47                   597.86                   623.45                   630.72                   212.58                   283.44                   470.86                   499.00                   515.62                   520.70
20.000                   3.0000                   2.0000                   6000.0                   2500.0                   25.000                   310.70                   413.09                   748.09                   817.48                   854.31                   863.66                   310.49                   412.90                   750.90                   823.01                   861.14                   870.54                   310.21                   412.38                   748.56                   819.22                   856.65                   866.06                   310.41                   412.82                   751.29                   823.40                   861.56                   871.00                   311.13                   413.86                   753.22                   825.58                   863.58                   872.94                   310.10                   412.40                   750.84                   823.10                   861.29                   870.70                   309.58                   411.57                   747.80                   819.13                   856.93                   866.30                   301.71                   400.56                   719.79                   784.40                   819.77                   828.77                   287.12                   377.29                   660.81                   711.74                   740.47                   748.22                   283.83                   359.64                   565.17                   596.12                   613.97                   619.18
20.000                   3.0000                   2.0000                   6000.0                   2500.0                   30.000                   390.22                   497.59                   882.17                   963.51                   1000.1                   1007.7                   390.16                   497.64                   882.95                   964.34                   1001.1                   1008.8                   389.89                   497.23                   881.51                   962.67                   999.20                   1006.9                   390.14                   497.67                   883.08                   964.19                   1000.8                   1008.5                   390.83                   498.56                   884.80                   965.73                   1002.3                   1009.9                   389.79                   497.26                   882.77                   964.17                   1000.9                   1008.6                   389.07                   496.28                   880.63                   962.27                   999.10                   1006.8                   379.38                   483.33                   842.62                   921.64                   959.09                   967.33                   360.62                   455.23                   752.07                   812.83                   845.64                   853.67                   352.66                   432.28                   648.77                   682.59                   701.79                   707.02
20.000                   3.0000                   2.0000                   6000.0                   2500.0                   35.000                   464.02                   574.10                   995.25                   1059.6                   1079.3                   1081.4                   464.07                   573.99                   960.75                   1017.6                   1039.8                   1043.4                   463.85                   573.68                   956.43                   1011.4                   1033.5                   1037.3                   464.11                   574.10                   962.01                   1017.8                   1039.4                   1042.9                   464.74                   574.95                   974.18                   1032.9                   1053.6                   1056.5                   463.77                   573.77                   966.19                   1023.7                   1045.2                   1048.5                   462.93                   572.76                   956.04                   1012.2                   1034.4                   1038.0                   451.87                   558.56                   932.76                   994.91                   1022.9                   1028.4                   429.68                   525.79                   836.08                   898.54                   929.46                   936.38                   416.91                   498.21                   708.04                   738.84                   756.59                   761.38
20.000                   3.0000                   2.0000                   6000.0                   2500.0                   40.000                   530.06                   639.45                   1078.1                   1111.9                   1119.4                   1118.6                   529.83                   635.45                   952.62                   987.03                   1002.5                   1005.3                   529.69                   635.46                   953.89                   987.00                   1001.6                   1004.1                   529.99                   636.40                   968.74                   1003.0                   1016.9                   1019.0                   530.64                   638.00                   992.97                   1029.6                   1042.2                   1043.6                   529.69                   636.31                   973.30                   1008.3                   1022.1                   1024.2                   528.73                   634.28                   946.38                   980.02                   995.31                   998.13                   516.76                   621.32                   947.28                   984.83                   1001.4                   1004.5                   491.15                   585.78                   894.22                   947.23                   972.48                   977.80                   474.05                   553.27                   748.10                   778.81                   796.44                   800.94
20.000                   3.0000                   2.0000                   6000.0                   2500.0                   45.000                   587.50                   693.54                   1096.5                   1118.5                   1122.6                   1121.2                   586.22                   683.11                   959.66                   986.32                   998.51                   1000.6                   586.25                   684.02                   970.23                   996.24                   1007.4                   1009.1                   586.66                   685.69                   989.58                   1017.0                   1027.3                   1028.4                   587.50                   688.49                   1014.4                   1042.0                   1050.7                   1051.0                   586.43                   685.74                   991.68                   1019.2                   1029.5                   1030.6                   585.26                   682.24                   956.89                   983.09                   995.07                   997.11                   573.71                   672.51                   963.34                   989.29                   1000.4                   1002.1                   545.27                   635.22                   922.63                   964.70                   984.90                   988.97                   523.97                   598.49                   783.22                   814.07                   831.11                   835.26
20.000                   3.0000                   2.0000                   6000.0                   2500.0                   50.000                   637.36                   739.07                   1101.4                   1117.1                   1119.5                   1117.8                   634.79                   722.50                   975.09                   996.49                   1006.0                   1007.3                   635.04                   724.46                   993.19                   1014.9                   1023.3                   1024.1                   635.56                   726.74                   1014.0                   1036.8                   1044.3                   1044.5                   636.64                   730.72                   1040.7                   1062.2                   1067.9                   1067.3                   635.41                   726.82                   1014.5                   1037.4                   1044.9                   1045.1                   634.04                   722.14                   975.70                   996.58                   1005.7                   1007.0                   623.77                   715.89                   987.82                   1007.8                   1015.5                   1016.2                   593.63                   677.95                   946.23                   980.12                   996.35                   999.44                   568.97                   638.01                   817.75                   848.00                   864.25                   868.04
20.000                   3.0000                   2.0000                   6000.0                   2500.0                   55.000                   673.88                   776.80                   1100.5                   1113.4                   1115.0                   1113.2                   670.42                   754.84                   998.96                   1017.3                   1024.4                   1024.9                   670.84                   757.97                   1019.2                   1038.1                   1044.2                   1044.1                   671.40                   760.87                   1036.3                   1055.2                   1060.6                   1060.0                   672.66                   766.43                   1059.0                   1076.0                   1079.7                   1078.6                   671.31                   760.99                   1036.3                   1055.3                   1060.6                   1060.1                   669.90                   755.11                   1002.8                   1020.9                   1027.7                   1028.0                   661.54                   751.00                   1019.0                   1037.0                   1042.6                   1042.4                   631.66                   711.17                   975.95                   1005.4                   1018.3                   1020.3                   605.15                   669.26                   849.33                   878.12                   893.41                   896.82
20.000                   3.0000                   2.0000                   6000.0                   2500.0                   60.000                   703.73                   813.01                   1098.9                   1109.4                   1110.4                   1108.5                   699.90                   788.69                   1025.2                   1040.9                   1045.8                   1045.4                   700.41                   792.59                   1042.6                   1058.3                   1062.4                   1061.6                   700.94                   795.67                   1054.7                   1070.0                   1073.5                   1072.4                   702.23                   802.21                   1072.1                   1085.4                   1087.7                   1086.2                   700.91                   795.84                   1054.4                   1069.7                   1073.3                   1072.2                   699.61                   789.55                   1030.1                   1045.6                   1050.2                   1049.6                   693.33                   786.88                   1045.0                   1060.2                   1064.0                   1063.0                   665.15                   742.70                   1009.8                   1035.2                   1044.7                   1045.4                   637.49                   696.92                   877.24                   904.03                   918.09                   921.08
20.000                   3.0000                   2.0000                   6000.0                   2500.0                   65.000                   728.30                   847.55                   1097.0                   1105.7                   1106.2                   1104.2                   724.33                   823.64                   1051.6                   1064.8                   1067.8                   1066.6                   724.88                   827.85                   1063.0                   1075.4                   1077.7                   1076.3                   725.35                   830.73                   1069.6                   1081.5                   1083.5                   1081.9                   726.63                   837.62                   1081.0                   1091.4                   1092.7                   1090.9                   725.37                   830.94                   1069.3                   1081.2                   1083.2                   1081.6                   724.22                   824.96                   1056.0                   1068.8                   1071.5                   1070.2                   719.86                   823.10                   1065.8                   1078.0                   1080.1                   1078.6                   694.19                   773.43                   1044.5                   1066.1                   1072.2                   1071.7                   666.21                   721.40                   901.63                   926.00                   938.62                   941.16
20.000                   3.0000                   2.0000                   6000.0                   2500.0                   70.000                   749.70                   878.89                   1097.0                   1104.1                   1104.3                   1102.2                   744.81                   858.73                   1070.5                   1080.7                   1082.3                   1080.6                   745.48                   862.39                   1076.9                   1086.5                   1087.6                   1085.9                   746.03                   864.69                   1080.4                   1089.5                   1090.5                   1088.6                   747.66                   870.86                   1087.4                   1095.6                   1096.2                   1094.2                   746.10                   864.97                   1080.2                   1089.3                   1090.3                   1088.5                   744.81                   860.06                   1073.5                   1083.5                   1084.8                   1083.1                   740.81                   858.27                   1079.0                   1088.3                   1089.4                   1087.6                   716.69                   806.20                   1069.4                   1086.2                   1089.8                   1088.6                   690.12                   742.40                   921.15                   942.81                   953.97                   956.09
20.000                   3.0000                   2.0000                   6000.0                   2500.0                   75.000                   776.86                   907.98                   1098.9                   1104.7                   1104.4                   1102.3                   770.62                   892.25                   1083.7                   1091.4                   1091.9                   1089.9                   771.48                   895.09                   1087.2                   1094.4                   1094.7                   1092.7                   772.15                   896.80                   1088.9                   1095.9                   1096.1                   1094.1                   774.39                   901.91                   1093.2                   1099.6                   1099.6                   1097.5                   772.30                   897.11                   1088.9                   1095.8                   1096.0                   1094.0                   770.64                   893.32                   1085.6                   1093.1                   1093.5                   1091.5                   765.53                   891.17                   1088.4                   1095.5                   1095.8                   1093.8                   736.40                   839.15                   1085.1                   1097.8                   1099.8                   1098.1                   709.37                   763.29                   937.57                   956.62                   966.36                   968.07