% Model:              batchmodel_COIL_N_20_COIL_kr_2.25_COIL_kh_1.5_FUNZ_freq_10000_FUNZ_I_eff_1000.mph
% Version:            COMSOL 6.0.0.318
% Date:               Feb 9 2022, 02:11
% Table:              Tabella 1 - GRIGLIA_T
% COIL_N                 COIL_kr                  COIL_kh                  FUNZ_freq                FUNZ_I_eff               Time (s)                 Temperatura (degC), Point: (0, 0)Temperatura (degC), Point: (15, 0)Temperatura (degC), Point: (28.051, 0)Temperatura (degC), Point: (29.025, 0)Temperatura (degC), Point: (29.61, 0)Temperatura (degC), Point: (29.99, 0)Temperatura (degC), Point: (0, 62.5)Temperatura (degC), Point: (15, 62.5)Temperatura (degC), Point: (28.051, 62.5)Temperatura (degC), Point: (29.025, 62.5)Temperatura (degC), Point: (29.61, 62.5)Temperatura (degC), Point: (29.99, 62.5)Temperatura (degC), Point: (0, 125)Temperatura (degC), Point: (15, 125)Temperatura (degC), Point: (28.051, 125)Temperatura (degC), Point: (29.025, 125)Temperatura (degC), Point: (29.61, 125)Temperatura (degC), Point: (29.99, 125)Temperatura (degC), Point: (0, 187.5)Temperatura (degC), Point: (15, 187.5)Temperatura (degC), Point: (28.051, 187.5)Temperatura (degC), Point: (29.025, 187.5)Temperatura (degC), Point: (29.61, 187.5)Temperatura (degC), Point: (29.99, 187.5)Temperatura (degC), Point: (0, 250)Temperatura (degC), Point: (15, 250)Temperatura (degC), Point: (28.051, 250)Temperatura (degC), Point: (29.025, 250)Temperatura (degC), Point: (29.61, 250)Temperatura (degC), Point: (29.99, 250)Temperatura (degC), Point: (0, 312.5)Temperatura (degC), Point: (15, 312.5)Temperatura (degC), Point: (28.051, 312.5)Temperatura (degC), Point: (29.025, 312.5)Temperatura (degC), Point: (29.61, 312.5)Temperatura (degC), Point: (29.99, 312.5)Temperatura (degC), Point: (0, 375)Temperatura (degC), Point: (15, 375)Temperatura (degC), Point: (28.051, 375)Temperatura (degC), Point: (29.025, 375)Temperatura (degC), Point: (29.61, 375)Temperatura (degC), Point: (29.99, 375)Temperatura (degC), Point: (0, 437.5)Temperatura (degC), Point: (15, 437.5)Temperatura (degC), Point: (28.051, 437.5)Temperatura (degC), Point: (29.025, 437.5)Temperatura (degC), Point: (29.61, 437.5)Temperatura (degC), Point: (29.99, 437.5)Temperatura (degC), Point: (0, 468.75)Temperatura (degC), Point: (15, 468.75)Temperatura (degC), Point: (28.051, 468.75)Temperatura (degC), Point: (29.025, 468.75)Temperatura (degC), Point: (29.61, 468.75)Temperatura (degC), Point: (29.99, 468.75)Temperatura (degC), Point: (0, 492.19)Temperatura (degC), Point: (15, 492.19)Temperatura (degC), Point: (28.051, 492.19)Temperatura (degC), Point: (29.025, 492.19)Temperatura (degC), Point: (29.61, 492.19)Temperatura (degC), Point: (29.99, 492.19)
20.000                   2.2500                   1.5000                   10000                    1000.0                   0.0000                   20.000                   20.000                   20.000                   20.000                   20.013                   20.191                   20.000                   20.000                   20.000                   20.000                   20.014                   20.192                   20.000                   20.000                   20.000                   20.000                   20.014                   20.193                   20.000                   20.000                   20.000                   20.000                   20.014                   20.193                   20.000                   20.000                   20.000                   20.000                   20.014                   20.191                   20.000                   20.000                   20.000                   20.000                   20.014                   20.191                   20.000                   20.000                   20.000                   20.000                   20.014                   20.193                   20.000                   20.000                   20.000                   20.000                   20.014                   20.193                   20.000                   20.000                   20.000                   20.000                   20.013                   20.187                   20.000                   20.000                   20.000                   20.000                   20.009                   20.154
20.000                   2.2500                   1.5000                   10000                    1000.0                   5.0000                   22.235                   29.961                   75.815                   81.835                   85.560                   87.383                   22.185                   29.795                   75.548                   81.804                   85.652                   87.444                   22.187                   29.798                   74.786                   80.772                   84.561                   86.336                   22.184                   29.761                   74.549                   80.501                   84.238                   85.982                   22.193                   29.850                   77.086                   84.252                   88.726                   90.282                   22.181                   29.742                   74.730                   80.977                   84.907                   86.669                   22.181                   29.775                   74.621                   80.531                   84.209                   85.938                   22.168                   29.704                   74.227                   80.149                   83.907                   85.651                   22.118                   29.455                   71.964                   77.467                   80.834                   82.229                   22.704                   30.034                   66.561                   71.081                   73.558                   74.579
20.000                   2.2500                   1.5000                   10000                    1000.0                   10.000                   36.832                   55.062                   117.14                   124.27                   128.71                   130.81                   36.440                   54.155                   114.26                   121.15                   125.33                   127.24                   36.388                   53.954                   112.48                   119.06                   123.17                   125.03                   36.538                   54.257                   113.42                   120.10                   124.24                   126.08                   36.416                   54.118                   115.27                   122.86                   127.53                   129.10                   36.343                   53.894                   113.20                   120.02                   124.05                   125.85                   36.264                   53.666                   111.63                   118.24                   122.32                   124.15                   36.274                   53.774                   112.39                   118.98                   123.07                   124.95                   36.261                   53.798                   113.38                   120.19                   124.29                   125.92                   38.036                   55.350                   108.59                   114.35                   117.23                   118.48
20.000                   2.2500                   1.5000                   10000                    1000.0                   15.000                   60.728                   84.433                   153.21                   160.34                   164.54                   166.43                   59.927                   83.053                   150.47                   157.75                   162.14                   164.10                   59.759                   82.595                   148.44                   155.55                   159.97                   161.92                   60.574                   83.945                   151.08                   158.20                   162.51                   164.40                   59.879                   83.016                   151.76                   159.61                   164.29                   166.18                   59.976                   83.231                   151.66                   159.18                   163.52                   165.46                   59.400                   81.955                   146.63                   153.66                   157.98                   159.90                   59.791                   82.766                   148.88                   155.95                   160.31                   162.26                   60.555                   84.228                   153.94                   161.48                   165.95                   167.80                   63.739                   87.372                   150.90                   157.29                   160.76                   162.29
20.000                   2.2500                   1.5000                   10000                    1000.0                   20.000                   88.078                   115.40                   190.31                   197.75                   202.02                   203.85                   86.702                   113.19                   185.35                   192.87                   197.42                   199.39                   86.411                   112.54                   183.80                   191.36                   196.07                   198.09                   88.204                   115.26                   188.41                   195.89                   200.32                   202.24                   86.731                   113.36                   187.74                   195.85                   200.57                   202.69                   87.092                   114.05                   188.98                   197.12                   201.70                   203.77                   85.915                   111.79                   181.86                   189.31                   193.88                   195.88                   86.792                   113.24                   184.59                   192.02                   196.58                   198.57                   88.663                   116.28                   191.75                   199.47                   203.86                   205.71                   93.422                   121.13                   191.16                   197.81                   201.47                   203.13
20.000                   2.2500                   1.5000                   10000                    1000.0                   25.000                   117.87                   147.89                   230.01                   238.23                   242.94                   244.87                   115.56                   144.07                   219.46                   227.20                   231.90                   233.89                   115.17                   143.34                   218.81                   226.79                   231.75                   233.84                   118.10                   147.46                   224.81                   232.56                   237.06                   239.03                   115.82                   144.69                   223.58                   232.02                   236.80                   239.04                   116.50                   145.83                   225.60                   234.28                   239.04                   241.19                   114.72                   142.79                   217.52                   225.42                   230.25                   232.33                   116.06                   144.67                   219.91                   227.65                   232.40                   234.41                   119.19                   149.21                   228.35                   236.18                   240.43                   242.23                   125.54                   155.58                   229.27                   236.08                   239.73                   241.39
20.000                   2.2500                   1.5000                   10000                    1000.0                   30.000                   149.44                   181.41                   270.23                   279.38                   284.76                   286.85                   145.94                   175.65                   254.19                   262.38                   267.35                   269.42                   145.50                   174.95                   254.06                   262.47                   267.70                   269.84                   149.51                   180.13                   260.43                   268.48                   273.15                   275.16                   146.58                   176.87                   259.84                   268.77                   273.75                   276.04                   147.61                   178.50                   262.90                   272.19                   277.25                   279.51                   145.24                   174.76                   253.53                   261.86                   266.96                   269.09                   146.92                   176.79                   255.23                   263.32                   268.27                   270.32                   151.12                   182.41                   264.79                   273.01                   277.41                   279.20                   158.44                   189.36                   264.60                   271.70                   275.52                   277.20
20.000                   2.2500                   1.5000                   10000                    1000.0                   35.000                   180.94                   213.54                   302.98                   312.28                   317.85                   320.01                   176.94                   207.70                   290.13                   298.83                   304.15                   306.29                   176.56                   207.14                   290.00                   298.85                   304.33                   306.52                   180.97                   212.49                   296.38                   305.03                   310.20                   312.33                   177.86                   209.09                   294.29                   303.40                   308.73                   311.00                   178.93                   210.65                   296.88                   306.20                   311.58                   313.84                   176.50                   207.19                   289.88                   298.68                   304.09                   306.27                   178.10                   208.97                   291.39                   300.04                   305.35                   307.48                   181.35                   212.68                   295.57                   304.04                   308.89                   310.83                   186.06                   215.51                   285.84                   292.45                   296.21                   297.83
20.000                   2.2500                   1.5000                   10000                    1000.0                   40.000                   212.44                   245.67                   335.74                   345.18                   350.94                   353.16                   207.93                   239.75                   326.07                   335.27                   340.95                   343.17                   207.62                   239.33                   325.94                   335.23                   340.96                   343.20                   212.43                   244.85                   332.32                   341.59                   347.26                   349.49                   209.15                   241.31                   328.74                   338.03                   343.71                   345.96                   210.25                   242.79                   330.85                   340.22                   345.92                   348.17                   207.76                   239.61                   326.24                   335.51                   341.22                   343.45                   209.27                   241.15                   327.55                   336.76                   342.43                   344.65                   211.58                   242.94                   326.34                   335.06                   340.37                   342.46                   213.67                   241.65                   307.09                   313.21                   316.90                   318.46
20.000                   2.2500                   1.5000                   10000                    1000.0                   45.000                   243.77                   277.95                   370.76                   380.57                   386.60                   388.88                   239.03                   272.16                   363.19                   373.00                   379.03                   381.33                   238.80                   271.86                   362.91                   372.72                   378.75                   381.05                   243.83                   277.46                   369.67                   379.67                   385.89                   388.22                   240.49                   273.90                   365.57                   375.49                   381.62                   383.86                   241.47                   275.10                   367.02                   376.93                   383.02                   385.27                   239.01                   272.17                   363.43                   373.28                   379.34                   381.64                   240.39                   273.54                   364.62                   374.45                   380.50                   382.81                   241.39                   273.42                   360.19                   369.44                   375.18                   377.39                   241.13                   268.64                   333.06                   339.10                   342.81                   344.31
20.000                   2.2500                   1.5000                   10000                    1000.0                   50.000                   275.04                   310.28                   406.49                   416.74                   423.06                   425.41                   270.17                   304.68                   400.69                   411.12                   417.53                   419.90                   270.02                   304.49                   400.21                   410.57                   416.92                   419.27                   275.22                   310.15                   407.47                   418.25                   425.02                   427.44                   271.85                   306.61                   403.15                   413.84                   420.46                   422.70                   272.65                   307.48                   403.87                   414.49                   421.00                   423.24                   270.25                   304.78                   400.89                   411.35                   417.78                   420.15                   271.49                   305.98                   401.98                   412.45                   418.89                   421.27                   271.06                   303.98                   395.01                   404.89                   411.06                   413.38                   268.55                   295.90                   360.53                   366.62                   370.37                   371.82
20.000                   2.2500                   1.5000                   10000                    1000.0                   55.000                   305.86                   342.13                   441.72                   452.42                   459.00                   461.39                   301.04                   336.85                   437.02                   447.95                   454.62                   457.05                   301.13                   337.06                   437.57                   448.51                   455.20                   457.61                   306.31                   342.59                   444.43                   455.77                   462.91                   465.38                   302.96                   339.07                   440.04                   451.29                   458.24                   460.49                   303.36                   339.29                   438.93                   449.86                   456.45                   458.67                   301.17                   337.02                   437.37                   448.31                   455.02                   457.43                   302.18                   337.99                   438.50                   449.58                   456.36                   458.81                   300.00                   333.78                   428.00                   438.18                   444.50                   446.85                   295.54                   323.22                   389.71                   396.17                   400.12                   401.54
20.000                   2.2500                   1.5000                   10000                    1000.0                   60.000                   336.41                   373.72                   476.66                   487.82                   494.64                   497.05                   331.75                   368.82                   472.67                   484.03                   490.92                   493.40                   332.17                   369.61                   474.95                   486.50                   493.54                   496.01                   337.23                   374.87                   480.92                   492.70                   500.08                   502.59                   333.92                   371.38                   476.53                   488.23                   495.43                   497.68                   333.82                   370.78                   472.95                   483.98                   490.47                   492.63                   331.91                   369.06                   473.29                   484.63                   491.56                   494.00                   332.63                   369.74                   474.56                   486.20                   493.32                   495.82                   328.52                   363.17                   459.95                   470.24                   476.56                   478.88                   322.30                   350.58                   419.88                   426.88                   431.11                   432.51
20.000                   2.2500                   1.5000                   10000                    1000.0                   65.000                   365.81                   404.08                   509.89                   521.35                   528.25                   530.64                   361.43                   399.64                   506.85                   518.59                   525.69                   528.22                   362.27                   401.12                   510.98                   523.13                   530.52                   533.03                   367.10                   405.99                   515.82                   528.03                   535.65                   538.18                   363.86                   402.53                   511.14                   523.18                   530.50                   532.74                   363.15                   401.04                   505.58                   516.75                   523.19                   525.30                   361.50                   399.80                   507.47                   519.18                   526.30                   528.77                   361.73                   399.93                   508.23                   520.33                   527.71                   530.23                   355.68                   390.97                   489.47                   499.81                   506.09                   508.37                   348.08                   376.83                   448.06                   455.46                   459.87                   461.21
20.000                   2.2500                   1.5000                   10000                    1000.0                   70.000                   394.13                   433.28                   541.49                   553.09                   559.92                   562.25                   390.13                   429.37                   539.62                   551.72                   559.02                   561.58                   391.49                   431.63                   545.73                   558.46                   566.19                   568.74                   395.98                   436.00                   549.19                   561.85                   569.70                   572.22                   392.83                   432.57                   543.96                   556.22                   563.57                   565.79                   391.42                   430.14                   536.88                   548.26                   554.68                   556.75                   390.01                   429.33                   539.99                   552.03                   559.32                   561.80                   389.55                   428.64                   539.63                   552.08                   559.65                   562.17                   381.54                   417.28                   516.70                   527.03                   533.22                   535.44                   372.93                   402.03                   474.36                   482.03                   486.51                   487.77
20.000                   2.2500                   1.5000                   10000                    1000.0                   75.000                   422.44                   462.47                   573.09                   584.83                   591.59                   593.85                   418.83                   459.10                   572.39                   584.85                   592.35                   594.94                   420.72                   462.15                   580.48                   593.79                   601.86                   604.45                   424.86                   466.01                   582.57                   595.67                   603.74                   606.25                   421.80                   462.60                   576.77                   589.26                   596.64                   598.84                   419.69                   459.24                   568.18                   579.77                   586.17                   588.19                   418.52                   458.86                   572.51                   584.88                   592.34                   594.84                   417.37                   457.35                   571.04                   583.82                   591.60                   594.11                   407.39                   443.59                   543.93                   554.24                   560.34                   562.52                   397.78                   427.23                   500.66                   508.59                   513.14                   514.33