% Model:              batchmodel_COIL_N_20_COIL_kr_1.5_COIL_kh_1.5_FUNZ_freq_10000_FUNZ_I_eff_1000.mph
% Version:            COMSOL 6.0.0.318
% Date:               Feb 9 2022, 00:58
% Table:              Tabella 1 - GRIGLIA_T
% COIL_N                 COIL_kr                  COIL_kh                  FUNZ_freq                FUNZ_I_eff               Time (s)                 Temperatura (degC), Point: (0, 0)Temperatura (degC), Point: (15, 0)Temperatura (degC), Point: (28.051, 0)Temperatura (degC), Point: (29.025, 0)Temperatura (degC), Point: (29.61, 0)Temperatura (degC), Point: (29.99, 0)Temperatura (degC), Point: (0, 62.5)Temperatura (degC), Point: (15, 62.5)Temperatura (degC), Point: (28.051, 62.5)Temperatura (degC), Point: (29.025, 62.5)Temperatura (degC), Point: (29.61, 62.5)Temperatura (degC), Point: (29.99, 62.5)Temperatura (degC), Point: (0, 125)Temperatura (degC), Point: (15, 125)Temperatura (degC), Point: (28.051, 125)Temperatura (degC), Point: (29.025, 125)Temperatura (degC), Point: (29.61, 125)Temperatura (degC), Point: (29.99, 125)Temperatura (degC), Point: (0, 187.5)Temperatura (degC), Point: (15, 187.5)Temperatura (degC), Point: (28.051, 187.5)Temperatura (degC), Point: (29.025, 187.5)Temperatura (degC), Point: (29.61, 187.5)Temperatura (degC), Point: (29.99, 187.5)Temperatura (degC), Point: (0, 250)Temperatura (degC), Point: (15, 250)Temperatura (degC), Point: (28.051, 250)Temperatura (degC), Point: (29.025, 250)Temperatura (degC), Point: (29.61, 250)Temperatura (degC), Point: (29.99, 250)Temperatura (degC), Point: (0, 312.5)Temperatura (degC), Point: (15, 312.5)Temperatura (degC), Point: (28.051, 312.5)Temperatura (degC), Point: (29.025, 312.5)Temperatura (degC), Point: (29.61, 312.5)Temperatura (degC), Point: (29.99, 312.5)Temperatura (degC), Point: (0, 375)Temperatura (degC), Point: (15, 375)Temperatura (degC), Point: (28.051, 375)Temperatura (degC), Point: (29.025, 375)Temperatura (degC), Point: (29.61, 375)Temperatura (degC), Point: (29.99, 375)Temperatura (degC), Point: (0, 437.5)Temperatura (degC), Point: (15, 437.5)Temperatura (degC), Point: (28.051, 437.5)Temperatura (degC), Point: (29.025, 437.5)Temperatura (degC), Point: (29.61, 437.5)Temperatura (degC), Point: (29.99, 437.5)Temperatura (degC), Point: (0, 468.75)Temperatura (degC), Point: (15, 468.75)Temperatura (degC), Point: (28.051, 468.75)Temperatura (degC), Point: (29.025, 468.75)Temperatura (degC), Point: (29.61, 468.75)Temperatura (degC), Point: (29.99, 468.75)Temperatura (degC), Point: (0, 492.19)Temperatura (degC), Point: (15, 492.19)Temperatura (degC), Point: (28.051, 492.19)Temperatura (degC), Point: (29.025, 492.19)Temperatura (degC), Point: (29.61, 492.19)Temperatura (degC), Point: (29.99, 492.19)
20.000                   1.5000                   1.5000                   10000                    1000.0                   0.0000                   20.000                   20.000                   20.000                   20.000                   20.012                   20.184                   20.000                   20.000                   20.000                   20.000                   20.015                   20.199                   20.000                   20.000                   20.000                   20.000                   20.017                   20.213                   20.000                   20.000                   20.000                   20.000                   20.016                   20.208                   20.000                   20.000                   20.000                   20.000                   20.013                   20.187                   20.000                   20.000                   20.000                   20.000                   20.013                   20.189                   20.000                   20.000                   20.000                   20.000                   20.016                   20.209                   20.000                   20.000                   20.000                   20.000                   20.017                   20.213                   20.000                   20.000                   20.000                   20.000                   20.014                   20.195                   20.000                   20.000                   20.000                   20.000                   20.013                   20.189
20.000                   1.5000                   1.5000                   10000                    1000.0                   5.0000                   22.564                   30.936                   77.460                   83.605                   86.602                   87.974                   22.584                   31.254                   83.991                   91.981                   96.468                   98.429                   22.644                   31.556                   82.996                   89.763                   93.783                   95.473                   22.617                   31.484                   85.158                   92.831                   97.492                   99.509                   22.572                   31.106                   79.704                   86.295                   90.614                   92.468                   22.620                   31.357                   82.303                   89.225                   93.106                   94.880                   22.644                   31.524                   82.855                   89.591                   93.637                   95.354                   22.653                   31.524                   82.707                   89.715                   93.730                   95.532                   22.631                   31.332                   83.197                   90.889                   95.237                   97.098                   25.275                   35.079                   83.932                   90.432                   94.077                   95.677
20.000                   1.5000                   1.5000                   10000                    1000.0                   10.000                   38.069                   56.659                   116.28                   122.83                   126.71                   128.48                   38.358                   57.733                   122.63                   129.99                   134.41                   136.34                   38.631                   58.450                   124.22                   131.47                   135.86                   137.79                   38.590                   58.375                   124.86                   132.32                   136.96                   138.99                   38.039                   56.558                   115.47                   121.86                   125.81                   127.64                   38.529                   57.763                   119.92                   126.60                   130.63                   132.47                   38.151                   57.127                   119.45                   126.34                   130.63                   132.53                   38.466                   57.940                   122.82                   130.18                   134.67                   136.66                   38.448                   57.219                   118.49                   125.26                   129.45                   131.31                   44.435                   63.965                   122.46                   128.52                   132.19                   133.83
20.000                   1.5000                   1.5000                   10000                    1000.0                   15.000                   62.600                   86.064                   150.43                   157.10                   161.23                   163.06                   63.178                   87.411                   155.08                   162.23                   166.67                   168.64                   63.639                   88.497                   159.67                   167.43                   172.27                   174.38                   63.619                   88.315                   158.03                   165.49                   170.15                   172.19                   62.621                   86.121                   151.14                   157.95                   162.15                   164.02                   63.484                   87.469                   153.30                   160.13                   164.38                   166.27                   62.632                   86.672                   155.61                   163.11                   167.78                   169.83                   63.243                   87.799                   158.25                   165.90                   170.67                   172.75                   63.164                   86.669                   152.39                   159.34                   163.69                   165.62                   68.030                   91.350                   152.99                   159.32                   163.28                   165.05
20.000                   1.5000                   1.5000                   10000                    1000.0                   20.000                   90.072                   116.43                   185.30                   192.36                   196.69                   198.57                   90.866                   117.94                   189.74                   197.28                   201.96                   203.98                   91.447                   119.24                   195.12                   203.35                   208.46                   210.62                   91.419                   118.93                   192.70                   200.54                   205.44                   207.54                   90.215                   116.74                   186.83                   194.07                   198.52                   200.45                   91.274                   118.06                   188.20                   195.44                   199.93                   201.88                   90.158                   117.35                   191.66                   199.62                   204.54                   206.65                   90.869                   118.46                   193.87                   201.95                   206.97                   209.11                   90.547                   116.84                   186.89                   194.23                   198.81                   200.79                   93.843                   119.40                   184.28                   190.91                   195.04                   196.86
20.000                   1.5000                   1.5000                   10000                    1000.0                   25.000                   119.82                   147.80                   221.04                   228.62                   233.28                   235.23                   120.75                   149.44                   225.91                   234.00                   238.97                   241.06                   121.37                   150.77                   230.89                   239.55                   244.91                   247.13                   121.32                   150.39                   228.65                   237.01                   242.21                   244.37                   120.13                   148.39                   222.91                   230.63                   235.38                   237.39                   121.22                   149.60                   224.27                   232.02                   236.80                   238.82                   120.06                   149.09                   227.97                   236.41                   241.63                   243.79                   120.68                   149.97                   229.86                   238.45                   243.77                   245.98                   119.91                   147.79                   222.27                   230.14                   235.00                   237.05                   121.75                   148.56                   216.64                   223.61                   227.94                   229.80
20.000                   1.5000                   1.5000                   10000                    1000.0                   30.000                   150.99                   180.33                   258.03                   266.18                   271.19                   273.22                   152.00                   182.03                   262.93                   271.56                   276.88                   279.05                   152.63                   183.36                   267.84                   277.01                   282.67                   284.95                   152.52                   182.92                   265.65                   274.55                   280.06                   282.30                   151.44                   181.06                   259.88                   268.11                   273.17                   275.25                   152.51                   182.23                   261.27                   269.52                   274.62                   276.71                   151.40                   181.83                   265.06                   274.02                   279.54                   281.78                   151.82                   182.48                   266.76                   275.86                   281.50                   283.78                   150.42                   179.61                   258.41                   266.80                   271.95                   274.07                   151.12                   178.95                   250.16                   257.48                   262.02                   263.93
20.000                   1.5000                   1.5000                   10000                    1000.0                   35.000                   182.15                   212.85                   295.02                   303.74                   309.10                   311.20                   183.24                   214.61                   299.96                   309.13                   314.79                   317.03                   183.89                   215.95                   304.79                   314.46                   320.43                   322.77                   183.72                   215.45                   302.66                   312.08                   317.92                   320.22                   182.75                   213.73                   296.86                   305.59                   310.96                   313.12                   183.79                   214.86                   298.27                   307.03                   312.43                   314.59                   182.74                   214.58                   302.15                   311.62                   317.46                   319.77                   182.95                   214.98                   303.65                   313.28                   319.23                   321.57                   180.93                   211.43                   294.55                   303.45                   308.91                   311.10                   180.48                   209.34                   283.68                   291.35                   296.10                   298.06
20.000                   1.5000                   1.5000                   10000                    1000.0                   40.000                   213.65                   245.75                   332.51                   341.77                   347.46                   349.64                   214.78                   247.55                   337.41                   347.12                   353.12                   355.42                   215.43                   248.90                   342.36                   352.58                   358.86                   361.25                   215.23                   248.36                   340.27                   350.27                   356.44                   358.81                   214.36                   246.76                   334.45                   343.74                   349.44                   351.66                   215.34                   247.81                   335.72                   345.01                   350.72                   352.94                   214.39                   247.64                   339.82                   349.85                   356.03                   358.39                   214.38                   247.82                   341.12                   351.31                   357.60                   360.00                   211.66                   243.53                   331.16                   340.60                   346.38                   348.64                   210.19                   240.11                   317.64                   325.69                   330.66                   332.66
20.000                   1.5000                   1.5000                   10000                    1000.0                   45.000                   245.22                   278.76                   370.13                   379.92                   385.94                   388.21                   246.40                   280.57                   374.98                   385.22                   391.57                   393.92                   247.06                   281.95                   380.10                   390.87                   397.46                   399.90                   246.80                   281.36                   378.05                   388.62                   395.13                   397.56                   246.05                   279.88                   372.21                   382.06                   388.10                   390.39                   246.96                   280.83                   373.28                   383.11                   389.14                   391.43                   246.11                   280.79                   377.64                   388.24                   394.76                   397.19                   245.88                   280.75                   378.75                   389.51                   396.14                   398.60                   242.46                   275.71                   367.89                   377.88                   383.99                   386.32                   239.99                   270.98                   351.73                   360.15                   365.35                   367.39
20.000                   1.5000                   1.5000                   10000                    1000.0                   50.000                   276.73                   311.80                   408.21                   418.60                   424.96                   427.29                   277.92                   313.63                   413.14                   424.00                   430.70                   433.11                   278.59                   315.04                   418.46                   429.87                   436.83                   439.33                   278.31                   314.42                   416.35                   427.57                   434.45                   436.93                   277.61                   312.97                   410.36                   420.82                   427.22                   429.57                   278.46                   313.85                   411.34                   421.79                   428.17                   430.52                   277.71                   313.94                   416.02                   427.27                   434.16                   436.65                   277.27                   313.69                   416.94                   428.35                   435.35                   437.87                   273.10                   307.82                   404.93                   415.52                   421.98                   424.37                   269.68                   301.78                   385.93                   394.75                   400.18                   402.27
20.000                   1.5000                   1.5000                   10000                    1000.0                   55.000                   308.18                   344.88                   446.70                   457.73                   464.44                   466.83                   309.35                   346.71                   451.82                   463.37                   470.43                   472.91                   310.05                   348.16                   457.35                   469.49                   476.85                   479.42                   309.74                   347.52                   455.11                   467.03                   474.29                   476.84                   309.07                   346.04                   448.85                   459.97                   466.73                   469.14                   309.85                   346.87                   449.84                   460.96                   467.73                   470.14                   309.21                   347.10                   454.89                   466.84                   474.13                   476.68                   308.57                   346.65                   455.63                   467.76                   475.15                   477.74                   303.62                   339.88                   442.23                   453.47                   460.30                   462.75                   299.25                   332.52                   420.23                   429.47                   435.15                   437.26
20.000                   1.5000                   1.5000                   10000                    1000.0                   60.000                   339.64                   377.97                   485.19                   496.85                   503.92                   506.37                   340.79                   379.79                   490.50                   502.73                   510.16                   512.70                   341.51                   381.29                   496.24                   509.10                   516.88                   519.52                   341.17                   380.61                   493.86                   506.48                   514.13                   516.74                   340.52                   379.11                   487.33                   499.12                   506.25                   508.72                   341.25                   379.88                   488.33                   500.14                   507.28                   509.75                   340.71                   380.25                   493.75                   506.42                   514.10                   516.71                   339.87                   379.61                   494.31                   507.16                   514.95                   517.60                   334.13                   371.94                   479.53                   491.41                   498.62                   501.12                   328.83                   363.27                   454.53                   464.19                   470.11                   472.26
20.000                   1.5000                   1.5000                   10000                    1000.0                   65.000                   371.09                   411.05                   523.68                   535.98                   543.40                   545.90                   372.23                   412.88                   529.18                   542.09                   549.89                   552.49                   372.96                   414.42                   535.12                   548.72                   556.90                   559.61                   372.61                   413.71                   532.62                   545.94                   553.98                   556.65                   371.97                   412.18                   525.82                   538.27                   545.77                   548.30                   372.64                   412.90                   526.83                   539.31                   546.84                   549.37                   372.21                   413.40                   532.62                   545.99                   554.06                   556.74                   371.17                   412.57                   533.00                   546.57                   554.75                   557.46                   364.65                   403.99                   516.83                   529.36                   536.93                   539.50                   358.41                   394.01                   488.83                   498.91                   505.07                   507.25
20.000                   1.5000                   1.5000                   10000                    1000.0                   70.000                   402.48                   444.06                   562.08                   575.02                   582.80                   585.36                   403.60                   445.88                   567.75                   581.35                   589.52                   592.18                   404.35                   447.46                   573.88                   588.20                   596.80                   599.58                   403.98                   446.73                   571.26                   585.29                   593.72                   596.45                   403.36                   445.17                   564.21                   577.32                   585.19                   587.78                   403.97                   445.84                   565.22                   578.39                   586.30                   588.89                   403.64                   446.47                   571.36                   585.45                   593.91                   596.66                   402.41                   445.45                   571.58                   585.86                   594.44                   597.22                   395.11                   436.00                   554.07                   567.26                   575.20                   577.82                   387.95                   424.71                   523.10                   533.60                   540.01                   542.22
20.000                   1.5000                   1.5000                   10000                    1000.0                   75.000                   431.39                   474.24                   596.82                   610.59                   618.87                   621.50                   432.43                   475.92                   602.06                   616.44                   625.12                   627.85                   433.06                   477.30                   607.41                   622.45                   631.51                   634.35                   432.78                   476.73                   605.47                   620.33                   629.29                   632.09                   432.17                   475.21                   598.62                   612.51                   620.89                   623.55                   432.72                   475.78                   599.43                   613.37                   621.78                   624.45                   432.44                   476.43                   605.30                   620.15                   629.10                   631.91                   431.18                   475.45                   605.82                   620.93                   630.04                   632.89                   423.55                   465.84                   588.89                   602.90                   611.34                   614.03                   415.79                   453.78                   555.95                   566.99                   573.70                   575.95