% Model:              batchmodel_COIL_N_20_COIL_kr_1.5_COIL_kh_1.5_FUNZ_freq_2000_FUNZ_I_eff_4000.mph
% Version:            COMSOL 6.0.0.318
% Date:               Feb 9 2022, 01:00
% Table:              Tabella 1 - GRIGLIA_T
% COIL_N                 COIL_kr                  COIL_kh                  FUNZ_freq                FUNZ_I_eff               Time (s)                 Temperatura (degC), Point: (0, 0)Temperatura (degC), Point: (15, 0)Temperatura (degC), Point: (25.641, 0)Temperatura (degC), Point: (27.821, 0)Temperatura (degC), Point: (29.128, 0)Temperatura (degC), Point: (29.99, 0)Temperatura (degC), Point: (0, 62.5)Temperatura (degC), Point: (15, 62.5)Temperatura (degC), Point: (25.641, 62.5)Temperatura (degC), Point: (27.821, 62.5)Temperatura (degC), Point: (29.128, 62.5)Temperatura (degC), Point: (29.99, 62.5)Temperatura (degC), Point: (0, 125)Temperatura (degC), Point: (15, 125)Temperatura (degC), Point: (25.641, 125)Temperatura (degC), Point: (27.821, 125)Temperatura (degC), Point: (29.128, 125)Temperatura (degC), Point: (29.99, 125)Temperatura (degC), Point: (0, 187.5)Temperatura (degC), Point: (15, 187.5)Temperatura (degC), Point: (25.641, 187.5)Temperatura (degC), Point: (27.821, 187.5)Temperatura (degC), Point: (29.128, 187.5)Temperatura (degC), Point: (29.99, 187.5)Temperatura (degC), Point: (0, 250)Temperatura (degC), Point: (15, 250)Temperatura (degC), Point: (25.641, 250)Temperatura (degC), Point: (27.821, 250)Temperatura (degC), Point: (29.128, 250)Temperatura (degC), Point: (29.99, 250)Temperatura (degC), Point: (0, 312.5)Temperatura (degC), Point: (15, 312.5)Temperatura (degC), Point: (25.641, 312.5)Temperatura (degC), Point: (27.821, 312.5)Temperatura (degC), Point: (29.128, 312.5)Temperatura (degC), Point: (29.99, 312.5)Temperatura (degC), Point: (0, 375)Temperatura (degC), Point: (15, 375)Temperatura (degC), Point: (25.641, 375)Temperatura (degC), Point: (27.821, 375)Temperatura (degC), Point: (29.128, 375)Temperatura (degC), Point: (29.99, 375)Temperatura (degC), Point: (0, 437.5)Temperatura (degC), Point: (15, 437.5)Temperatura (degC), Point: (25.641, 437.5)Temperatura (degC), Point: (27.821, 437.5)Temperatura (degC), Point: (29.128, 437.5)Temperatura (degC), Point: (29.99, 437.5)Temperatura (degC), Point: (0, 468.75)Temperatura (degC), Point: (15, 468.75)Temperatura (degC), Point: (25.641, 468.75)Temperatura (degC), Point: (27.821, 468.75)Temperatura (degC), Point: (29.128, 468.75)Temperatura (degC), Point: (29.99, 468.75)Temperatura (degC), Point: (0, 492.19)Temperatura (degC), Point: (15, 492.19)Temperatura (degC), Point: (25.641, 492.19)Temperatura (degC), Point: (27.821, 492.19)Temperatura (degC), Point: (29.128, 492.19)Temperatura (degC), Point: (29.99, 492.19)
20.000                   1.5000                   1.5000                   2000.0                   4000.0                   0.0000                   20.000                   20.000                   20.000                   20.000                   20.061                   20.220                   20.000                   20.000                   20.000                   20.000                   20.067                   20.233                   20.000                   20.000                   20.000                   20.000                   20.075                   20.247                   20.000                   20.000                   20.000                   20.000                   20.072                   20.241                   20.000                   20.000                   20.000                   20.000                   20.063                   20.223                   20.000                   20.000                   20.000                   20.000                   20.063                   20.224                   20.000                   20.000                   20.000                   20.000                   20.072                   20.243                   20.000                   20.000                   20.000                   20.000                   20.074                   20.247                   20.000                   20.000                   20.000                   20.000                   20.065                   20.229                   20.000                   20.000                   20.000                   20.000                   20.059                   20.217
20.000                   1.5000                   1.5000                   2000.0                   4000.0                   5.0000                   29.342                   63.118                   200.12                   254.43                   288.65                   299.26                   29.518                   64.118                   205.31                   262.02                   297.53                   308.45                   29.710                   65.359                   212.49                   272.25                   309.41                   320.68                   29.637                   64.851                   209.34                   267.72                   304.24                   315.35                   29.370                   63.294                   201.17                   255.91                   290.36                   301.11                   29.390                   63.363                   201.21                   256.16                   290.84                   301.55                   29.673                   65.059                   210.66                   269.39                   305.97                   317.10                   29.722                   65.398                   212.59                   272.20                   309.27                   320.51                   29.305                   63.091                   200.89                   256.12                   290.99                   301.76                   31.233                   63.522                   184.64                   231.08                   260.98                   270.56
20.000                   1.5000                   1.5000                   2000.0                   4000.0                   10.000                   88.887                   165.38                   376.37                   452.74                   495.93                   507.86                   89.805                   168.04                   387.38                   468.18                   513.30                   525.53                   90.482                   170.20                   396.78                   480.25                   527.26                   539.91                   90.156                   169.05                   390.99                   472.66                   518.24                   530.68                   89.217                   166.43                   381.48                   459.52                   503.78                   515.85                   89.221                   166.27                   379.91                   457.32                   501.60                   513.80                   90.390                   169.75                   394.01                   476.48                   523.14                   535.67                   90.437                   170.05                   395.45                   478.39                   525.06                   537.69                   87.900                   163.67                   374.53                   451.44                   495.34                   507.45                   90.008                   159.79                   340.07                   402.57                   439.24                   449.72
20.000                   1.5000                   1.5000                   2000.0                   4000.0                   15.000                   178.15                   278.78                   539.70                   632.12                   681.52                   694.30                   179.69                   282.12                   549.96                   644.76                   694.50                   707.58                   180.56                   284.32                   556.98                   651.60                   702.26                   715.77                   180.00                   282.91                   552.71                   647.87                   698.01                   711.23                   178.79                   280.04                   542.26                   633.94                   684.01                   696.93                   178.77                   279.97                   542.96                   636.18                   686.19                   699.15                   180.47                   283.79                   554.29                   649.33                   699.16                   712.56                   180.30                   283.85                   555.64                   649.99                   700.67                   714.31                   175.33                   274.84                   536.16                   628.89                   677.16                   689.36                   173.12                   264.37                   486.35                   561.48                   603.48                   614.96
20.000                   1.5000                   1.5000                   2000.0                   4000.0                   20.000                   274.30                   387.77                   676.62                   784.69                   844.57                   858.64                   275.99                   390.93                   687.16                   801.70                   864.37                   878.74                   276.81                   392.91                   695.43                   815.55                   880.47                   895.15                   276.15                   391.54                   690.97                   808.52                   872.47                   887.03                   274.91                   388.61                   678.52                   787.69                   848.19                   862.35                   274.95                   388.80                   679.88                   790.09                   851.06                   865.26                   276.69                   392.27                   692.20                   810.35                   874.50                   889.08                   276.26                   392.11                   693.75                   813.12                   877.83                   892.51                   269.51                   381.72                   669.55                   776.20                   834.98                   848.96                   263.01                   366.47                   611.74                   694.25                   737.40                   748.10
20.000                   1.5000                   1.5000                   2000.0                   4000.0                   25.000                   366.59                   485.35                   790.55                   912.36                   966.36                   976.89                   368.36                   489.65                   815.94                   945.58                   999.87                   1009.9                   369.45                   495.10                   922.02                   1070.3                   1112.9                   1117.5                   368.33                   490.10                   830.40                   969.32                   1025.7                   1035.7                   367.00                   486.06                   794.95                   918.82                   973.20                   983.71                   367.08                   486.46                   801.43                   929.39                   984.81                   995.40                   369.16                   492.97                   869.42                   1015.6                   1066.3                   1073.5                   368.61                   493.71                   908.09                   1057.8                   1102.7                   1107.8                   359.80                   477.09                   782.64                   907.95                   964.20                   975.31                   350.61                   457.11                   693.71                   770.27                   811.74                   821.37
20.000                   1.5000                   1.5000                   2000.0                   4000.0                   30.000                   449.64                   566.23                   839.38                   922.88                   958.41                   964.76                   452.63                   577.00                   913.79                   1008.7                   1040.9                   1044.8                   455.75                   596.02                   1120.7                   1195.0                   1209.5                   1207.3                   452.06                   578.81                   985.89                   1089.1                   1115.6                   1116.7                   450.04                   567.85                   848.97                   934.23                   969.85                   976.08                   449.88                   568.28                   858.80                   947.42                   983.92                   990.19                   454.71                   588.94                   1055.0                   1141.2                   1160.1                   1159.3                   454.59                   593.78                   1111.1                   1187.8                   1202.9                   1201.0                   440.34                   555.49                   842.25                   938.76                   979.79                   987.22                   428.16                   529.77                   736.90                   799.74                   831.86                   838.76
20.000                   1.5000                   1.5000                   2000.0                   4000.0                   35.000                   522.74                   630.87                   866.19                   926.30                   951.93                   956.15                   528.41                   651.45                   989.10                   1055.0                   1072.8                   1073.0                   535.48                   687.54                   1180.9                   1220.0                   1225.1                   1221.1                   527.79                   658.84                   1085.9                   1143.4                   1154.5                   1152.4                   523.41                   634.11                   883.99                   945.58                   970.95                   974.91                   522.85                   634.66                   895.51                   959.03                   984.61                   988.44                   533.12                   674.71                   1130.2                   1176.8                   1184.4                   1181.3                   534.10                   685.44                   1178.4                   1218.4                   1223.7                   1219.8                   509.38                   616.30                   873.54                   950.29                   983.26                   988.90                   493.67                   586.32                   765.52                   818.95                   845.56                   851.04
20.000                   1.5000                   1.5000                   2000.0                   4000.0                   40.000                   585.11                   682.78                   897.24                   944.08                   963.76                   966.54                   593.73                   713.25                   1042.5                   1088.1                   1098.0                   1096.3                   604.99                   769.64                   1202.2                   1225.6                   1226.4                   1221.7                   594.13                   729.19                   1133.0                   1168.2                   1172.9                   1169.4                   586.17                   687.70                   922.13                   970.32                   989.38                   991.72                   585.41                   688.82                   936.14                   986.14                   1004.8                   1006.7                   601.30                   749.56                   1161.9                   1190.5                   1193.2                   1189.2                   603.83                   769.28                   1204.9                   1228.6                   1229.5                   1224.8                   566.65                   663.02                   897.07                   961.74                   989.87                   994.38                   547.68                   629.98                   789.71                   837.41                   860.91                   865.55
20.000                   1.5000                   1.5000                   2000.0                   4000.0                   45.000                   637.40                   726.30                   934.30                   971.98                   987.18                   988.73                   648.33                   768.80                   1075.2                   1106.4                   1112.0                   1109.3                   662.78                   847.96                   1198.4                   1213.8                   1212.9                   1208.0                   650.31                   795.62                   1146.5                   1169.4                   1171.2                   1167.2                   638.78                   733.08                   962.59                   1002.0                   1016.0                   1016.7                   638.13                   735.16                   977.72                   1017.9                   1030.9                   1031.2                   658.15                   820.58                   1167.1                   1186.2                   1186.6                   1182.2                   662.21                   850.83                   1203.0                   1218.3                   1217.2                   1212.3                   613.98                   700.35                   919.05                   975.25                   999.83                   1003.5                   592.35                   665.13                   812.58                   856.45                   877.98                   882.02
20.000                   1.5000                   1.5000                   2000.0                   4000.0                   50.000                   680.31                   768.82                   977.00                   1007.9                   1018.6                   1018.7                   692.16                   825.78                   1097.8                   1119.7                   1122.2                   1118.9                   707.47                   914.98                   1191.7                   1202.0                   1199.9                   1194.9                   695.47                   860.88                   1152.2                   1167.8                   1167.6                   1163.3                   681.86                   778.07                   1004.4                   1036.2                   1045.2                   1044.4                   681.49                   781.55                   1019.0                   1050.3                   1058.3                   1056.9                   702.73                   886.32                   1167.4                   1180.4                   1179.3                   1174.7                   707.68                   921.58                   1197.7                   1207.6                   1205.3                   1200.3                   653.29                   731.64                   940.43                   989.03                   1010.0                   1012.8                   629.58                   694.14                   833.98                   874.32                   894.01                   897.48
20.000                   1.5000                   1.5000                   2000.0                   4000.0                   55.000                   713.48                   818.73                   1025.7                   1050.3                   1056.0                   1054.2                   725.73                   881.09                   1112.7                   1127.8                   1128.2                   1124.3                   742.87                   965.99                   1182.7                   1189.7                   1186.9                   1181.9                   730.15                   917.02                   1152.6                   1163.3                   1161.8                   1157.3                   715.09                   829.00                   1045.3                   1068.8                   1073.4                   1071.0                   715.01                   833.54                   1056.6                   1079.1                   1082.9                   1080.2                   737.42                   939.84                   1164.0                   1172.9                   1170.8                   1166.1                   744.34                   975.92                   1190.3                   1196.7                   1193.7                   1188.5                   685.69                   760.82                   962.28                   1003.9                   1021.0                   1022.7                   660.64                   718.02                   852.89                   889.42                   907.11                   909.99
20.000                   1.5000                   1.5000                   2000.0                   4000.0                   60.000                   749.44                   874.70                   1064.5                   1082.0                   1084.1                   1081.1                   766.51                   930.49                   1123.1                   1133.5                   1132.4                   1128.2                   791.42                   1003.0                   1175.9                   1180.7                   1177.4                   1172.4                   773.45                   961.86                   1152.4                   1159.8                   1157.5                   1152.9                   751.37                   883.35                   1076.5                   1092.7                   1094.2                   1091.0                   751.49                   887.68                   1084.2                   1099.6                   1100.6                   1097.2                   783.50                   981.11                   1161.3                   1167.5                   1164.7                   1159.9                   795.18                   1014.3                   1184.2                   1188.4                   1184.9                   1179.8                   710.33                   793.97                   991.24                   1027.0                   1039.9                   1040.2                   684.21                   737.51                   869.04                   902.13                   918.04                   920.43
20.000                   1.5000                   1.5000                   2000.0                   4000.0                   65.000                   791.08                   931.96                   1094.3                   1105.0                   1104.5                   1100.7                   815.88                   977.00                   1132.3                   1138.9                   1136.7                   1132.2                   850.85                   1034.8                   1171.3                   1174.3                   1170.6                   1165.6                   826.23                   1002.1                   1153.2                   1158.0                   1155.1                   1150.3                   793.53                   938.15                   1101.3                   1111.3                   1110.5                   1106.6                   793.81                   941.71                   1106.1                   1115.7                   1114.6                   1110.6                   840.09                   1017.7                   1160.2                   1164.1                   1160.8                   1155.9                   857.36                   1046.3                   1179.7                   1182.1                   1178.2                   1173.1                   731.41                   829.97                   1025.0                   1055.5                   1064.0                   1062.8                   704.13                   755.32                   884.13                   914.16                   928.53                   930.48
20.000                   1.5000                   1.5000                   2000.0                   4000.0                   70.000                   848.56                   983.11                   1115.4                   1121.4                   1119.2                   1115.0                   873.51                   1017.8                   1141.3                   1145.1                   1142.0                   1137.3                   908.44                   1062.2                   1170.7                   1172.3                   1168.3                   1163.2                   883.84                   1036.8                   1156.6                   1159.3                   1155.8                   1150.9                   850.58                   987.29                   1119.7                   1125.4                   1123.2                   1118.8                   850.81                   989.97                   1122.8                   1128.3                   1125.9                   1121.5                   897.80                   1049.2                   1162.1                   1164.2                   1160.5                   1155.5                   915.54                   1072.4                   1178.5                   1179.6                   1175.4                   1170.2                   757.24                   869.46                   1056.3                   1080.2                   1085.1                   1082.7                   719.89                   773.82                   898.97                   926.23                   939.24                   940.80
20.000                   1.5000                   1.5000                   2000.0                   4000.0                   75.000                   911.58                   1031.2                   1132.9                   1135.2                   1131.8                   1127.2                   933.69                   1055.9                   1150.3                   1151.7                   1147.8                   1143.0                   964.60                   1087.7                   1172.0                   1172.2                   1167.9                   1162.8                   942.65                   1069.1                   1161.0                   1162.0                   1157.9                   1153.0                   912.81                   1033.6                   1135.4                   1137.8                   1134.3                   1129.7                   912.93                   1035.3                   1137.3                   1139.5                   1136.0                   1131.4                   955.24                   1078.3                   1165.4                   1166.0                   1161.8                   1156.7                   971.36                   1096.1                   1178.8                   1178.7                   1174.2                   1168.9                   785.90                   910.28                   1085.9                   1102.9                   1104.7                   1101.3                   734.08                   792.79                   913.81                   938.41                   950.13                   951.31