% Model:              batchmodel_COIL_N_20_COIL_kr_3_COIL_kh_1_FUNZ_freq_2000_FUNZ_I_eff_4000.mph
% Version:            COMSOL 6.0.0.318
% Date:               Feb 9 2022, 03:12
% Table:              Tabella 1 - GRIGLIA_T
% COIL_N                 COIL_kr                  COIL_kh                  FUNZ_freq                FUNZ_I_eff               Time (s)                 Temperatura (degC), Point: (0, 0)Temperatura (degC), Point: (15, 0)Temperatura (degC), Point: (25.641, 0)Temperatura (degC), Point: (27.821, 0)Temperatura (degC), Point: (29.128, 0)Temperatura (degC), Point: (29.99, 0)Temperatura (degC), Point: (0, 62.5)Temperatura (degC), Point: (15, 62.5)Temperatura (degC), Point: (25.641, 62.5)Temperatura (degC), Point: (27.821, 62.5)Temperatura (degC), Point: (29.128, 62.5)Temperatura (degC), Point: (29.99, 62.5)Temperatura (degC), Point: (0, 125)Temperatura (degC), Point: (15, 125)Temperatura (degC), Point: (25.641, 125)Temperatura (degC), Point: (27.821, 125)Temperatura (degC), Point: (29.128, 125)Temperatura (degC), Point: (29.99, 125)Temperatura (degC), Point: (0, 187.5)Temperatura (degC), Point: (15, 187.5)Temperatura (degC), Point: (25.641, 187.5)Temperatura (degC), Point: (27.821, 187.5)Temperatura (degC), Point: (29.128, 187.5)Temperatura (degC), Point: (29.99, 187.5)Temperatura (degC), Point: (0, 250)Temperatura (degC), Point: (15, 250)Temperatura (degC), Point: (25.641, 250)Temperatura (degC), Point: (27.821, 250)Temperatura (degC), Point: (29.128, 250)Temperatura (degC), Point: (29.99, 250)Temperatura (degC), Point: (0, 312.5)Temperatura (degC), Point: (15, 312.5)Temperatura (degC), Point: (25.641, 312.5)Temperatura (degC), Point: (27.821, 312.5)Temperatura (degC), Point: (29.128, 312.5)Temperatura (degC), Point: (29.99, 312.5)Temperatura (degC), Point: (0, 375)Temperatura (degC), Point: (15, 375)Temperatura (degC), Point: (25.641, 375)Temperatura (degC), Point: (27.821, 375)Temperatura (degC), Point: (29.128, 375)Temperatura (degC), Point: (29.99, 375)Temperatura (degC), Point: (0, 437.5)Temperatura (degC), Point: (15, 437.5)Temperatura (degC), Point: (25.641, 437.5)Temperatura (degC), Point: (27.821, 437.5)Temperatura (degC), Point: (29.128, 437.5)Temperatura (degC), Point: (29.99, 437.5)Temperatura (degC), Point: (0, 468.75)Temperatura (degC), Point: (15, 468.75)Temperatura (degC), Point: (25.641, 468.75)Temperatura (degC), Point: (27.821, 468.75)Temperatura (degC), Point: (29.128, 468.75)Temperatura (degC), Point: (29.99, 468.75)Temperatura (degC), Point: (0, 492.19)Temperatura (degC), Point: (15, 492.19)Temperatura (degC), Point: (25.641, 492.19)Temperatura (degC), Point: (27.821, 492.19)Temperatura (degC), Point: (29.128, 492.19)Temperatura (degC), Point: (29.99, 492.19)
20.000                   3.0000                   1.0000                   2000.0                   4000.0                   0.0000                   20.000                   20.000                   20.000                   20.000                   20.061                   20.220                   20.000                   20.000                   20.000                   20.000                   20.061                   20.220                   20.000                   20.000                   20.000                   20.000                   20.061                   20.220                   20.000                   20.000                   20.000                   20.000                   20.061                   20.220                   20.000                   20.000                   20.000                   20.000                   20.061                   20.220                   20.000                   20.000                   20.000                   20.000                   20.061                   20.220                   20.000                   20.000                   20.000                   20.000                   20.061                   20.220                   20.000                   20.000                   20.000                   20.000                   20.059                   20.217                   20.000                   20.000                   20.000                   20.000                   20.054                   20.206                   20.000                   20.000                   20.000                   20.000                   20.037                   20.167
20.000                   3.0000                   1.0000                   2000.0                   4000.0                   5.0000                   27.423                   56.307                   176.90                   225.71                   257.09                   267.14                   27.444                   56.500                   178.01                   227.22                   258.69                   268.79                   27.453                   56.519                   177.97                   227.17                   258.70                   268.73                   27.427                   56.412                   177.74                   226.87                   258.34                   268.40                   27.374                   56.081                   176.31                   225.35                   256.80                   266.86                   27.397                   56.186                   176.73                   225.79                   257.29                   267.37                   27.443                   56.397                   177.17                   226.15                   257.67                   267.73                   27.140                   54.929                   171.49                   218.60                   249.07                   258.91                   26.527                   51.952                   157.58                   199.66                   226.98                   235.95                   26.939                   49.022                   128.68                   158.07                   177.15                   183.97
20.000                   3.0000                   1.0000                   2000.0                   4000.0                   10.000                   79.620                   148.56                   339.40                   408.54                   448.85                   460.29                   79.778                   148.94                   340.31                   409.20                   449.68                   461.22                   79.814                   149.00                   340.45                   409.38                   449.65                   461.17                   79.692                   148.79                   339.96                   408.75                   449.24                   460.79                   79.537                   148.56                   340.24                   409.61                   450.15                   461.62                   79.621                   148.68                   340.37                   409.69                   450.14                   461.60                   79.670                   148.69                   339.87                   409.07                   449.47                   460.91                   77.340                   143.93                   327.64                   393.04                   431.96                   443.07                   71.801                   131.35                   291.73                   347.41                   380.92                   390.99                   68.548                   117.13                   232.93                   269.48                   292.25                   299.66
20.000                   3.0000                   1.0000                   2000.0                   4000.0                   15.000                   160.64                   254.83                   499.58                   585.70                   634.55                   647.67                   160.88                   255.19                   499.86                   585.87                   634.72                   647.81                   160.88                   255.18                   500.33                   586.83                   635.60                   648.63                   160.74                   255.03                   500.24                   586.80                   635.56                   648.57                   160.60                   254.85                   499.28                   584.93                   633.43                   646.40                   160.65                   254.77                   498.59                   584.12                   632.39                   645.32                   160.53                   254.54                   498.38                   583.88                   632.00                   644.92                   155.33                   246.10                   480.02                   561.10                   607.92                   620.47                   142.12                   222.57                   423.77                   491.91                   531.03                   542.11                   132.57                   196.86                   339.27                   383.45                   409.92                   417.83
20.000                   3.0000                   1.0000                   2000.0                   4000.0                   20.000                   253.47                   360.36                   635.86                   737.13                   790.14                   802.85                   253.69                   360.61                   636.10                   737.41                   790.43                   803.13                   253.65                   360.59                   636.30                   737.69                   790.73                   803.44                   253.53                   360.48                   636.18                   737.54                   790.57                   803.28                   253.41                   360.28                   635.62                   736.79                   789.74                   802.42                   253.38                   360.10                   635.11                   736.19                   789.13                   801.81                   253.04                   359.66                   634.36                   735.19                   788.05                   800.72                   245.18                   348.45                   612.44                   706.32                   756.72                   769.05                   224.25                   315.90                   545.31                   624.10                   666.27                   677.15                   205.45                   277.73                   435.30                   483.67                   511.35                   519.20
20.000                   3.0000                   1.0000                   2000.0                   4000.0                   25.000                   343.12                   458.05                   764.98                   894.20                   954.81                   967.21                   343.31                   458.26                   765.71                   895.24                   955.85                   968.22                   343.24                   458.21                   765.68                   895.24                   955.90                   968.29                   343.14                   458.11                   765.53                   895.03                   955.66                   968.05                   343.02                   457.91                   764.86                   894.16                   954.79                   967.19                   342.94                   457.74                   764.50                   893.73                   954.34                   966.75                   342.45                   457.15                   763.74                   892.96                   953.64                   966.07                   332.07                   442.73                   726.81                   841.88                   899.97                   912.61                   304.61                   403.09                   643.94                   726.24                   770.47                   781.42                   278.13                   355.96                   524.00                   575.10                   603.44                   611.10
20.000                   3.0000                   1.0000                   2000.0                   4000.0                   30.000                   427.56                   547.34                   891.01                   1013.0                   1057.4                   1063.8                   427.73                   547.72                   900.57                   1026.2                   1069.4                   1075.1                   427.66                   547.83                   907.86                   1035.1                   1077.2                   1082.4                   427.57                   547.74                   907.50                   1034.7                   1076.9                   1082.1                   427.44                   547.31                   896.59                   1021.2                   1065.1                   1071.0                   427.34                   547.06                   891.84                   1014.6                   1059.1                   1065.4                   426.78                   546.83                   904.71                   1032.0                   1074.8                   1080.1                   414.04                   528.70                   842.54                   966.74                   1017.8                   1026.8                   381.11                   482.03                   721.49                   808.99                   855.59                   866.03                   348.81                   429.37                   597.81                   646.85                   673.58                   680.44
20.000                   3.0000                   1.0000                   2000.0                   4000.0                   35.000                   502.96                   621.10                   926.89                   1001.7                   1029.2                   1032.6                   503.36                   624.00                   986.74                   1072.6                   1094.2                   1094.7                   503.62                   626.81                   1030.2                   1109.7                   1126.9                   1126.0                   503.55                   626.74                   1029.1                   1108.7                   1125.9                   1125.1                   503.01                   622.81                   966.76                   1052.1                   1076.0                   1077.3                   502.73                   621.02                   931.87                   1009.0                   1036.4                   1039.7                   502.58                   624.11                   996.94                   1081.1                   1101.3                   1101.3                   487.20                   601.62                   918.33                   1014.3                   1049.4                   1054.1                   449.51                   548.62                   782.58                   870.75                   912.97                   921.58                   413.73                   492.50                   649.62                   693.93                   717.90                   723.84
20.000                   3.0000                   1.0000                   2000.0                   4000.0                   40.000                   567.48                   676.86                   941.72                   994.83                   1014.8                   1017.0                   568.87                   685.08                   1029.2                   1087.3                   1100.1                   1098.9                   570.45                   694.44                   1090.7                   1137.3                   1145.2                   1142.5                   570.42                   694.43                   1089.9                   1136.5                   1144.4                   1141.7                   568.25                   682.32                   1001.4                   1061.7                   1077.0                   1076.6                   567.27                   677.09                   947.88                   1002.7                   1022.7                   1024.6                   568.34                   685.92                   1042.1                   1098.1                   1109.7                   1108.1                   551.12                   663.68                   1015.7                   1088.1                   1105.6                   1105.2                   508.02                   602.45                   833.37                   915.00                   952.11                   959.08                   469.46                   544.30                   688.56                   728.78                   750.90                   756.21
20.000                   3.0000                   1.0000                   2000.0                   4000.0                   45.000                   622.71                   722.01                   962.67                   1004.0                   1019.0                   1020.1                   625.39                   736.19                   1055.6                   1095.6                   1103.4                   1101.1                   628.78                   754.64                   1119.2                   1148.2                   1151.4                   1147.8                   628.81                   754.77                   1118.8                   1147.6                   1150.8                   1147.2                   624.44                   731.64                   1028.7                   1071.9                   1081.8                   1080.3                   622.52                   722.47                   968.92                   1011.6                   1026.3                   1027.1                   624.96                   737.45                   1068.2                   1106.6                   1113.3                   1110.7                   608.11                   720.78                   1085.4                   1128.2                   1135.4                   1132.7                   559.81                   648.18                   873.20                   945.48                   977.52                   983.08                   519.03                   588.84                   720.57                   758.17                   779.39                   784.30
20.000                   3.0000                   1.0000                   2000.0                   4000.0                   50.000                   668.18                   761.85                   991.74                   1026.0                   1036.7                   1036.4                   672.06                   784.24                   1073.4                   1102.0                   1106.5                   1103.6                   677.14                   815.00                   1129.9                   1149.1                   1149.8                   1145.8                   677.23                   815.34                   1129.7                   1148.8                   1149.5                   1145.5                   670.82                   777.22                   1051.9                   1083.3                   1089.4                   1087.1                   668.01                   762.53                   997.02                   1031.9                   1042.3                   1041.8                   671.58                   785.66                   1083.1                   1110.3                   1114.0                   1110.8                   657.43                   777.47                   1116.8                   1142.6                   1145.1                   1141.4                   604.65                   686.81                   903.86                   965.81                   993.06                   997.36                   562.69                   626.76                   748.00                   785.10                   805.92                   810.45
20.000                   3.0000                   1.0000                   2000.0                   4000.0                   55.000                   702.14                   805.85                   1027.8                   1055.5                   1062.0                   1060.3                   706.74                   833.24                   1086.5                   1107.4                   1109.6                   1106.3                   712.85                   869.00                   1131.1                   1144.8                   1144.2                   1140.0                   712.98                   869.49                   1131.0                   1144.7                   1144.1                   1139.8                   705.34                   824.97                   1071.1                   1094.3                   1097.6                   1094.7                   701.97                   806.46                   1031.1                   1058.9                   1065.2                   1063.3                   706.14                   834.16                   1093.2                   1113.2                   1114.9                   1111.4                   696.02                   837.32                   1127.9                   1145.0                   1145.3                   1141.2                   641.67                   719.43                   933.59                   986.82                   1009.3                   1012.2                   599.24                   657.89                   772.83                   809.84                   829.77                   833.86
20.000                   3.0000                   1.0000                   2000.0                   4000.0                   60.000                   728.30                   853.87                   1062.0                   1082.0                   1084.8                   1082.0                   733.61                   880.64                   1097.9                   1112.8                   1113.3                   1109.6                   741.18                   915.14                   1130.0                   1140.0                   1138.6                   1134.2                   741.38                   915.73                   1130.1                   1140.0                   1138.5                   1134.2                   732.01                   872.67                   1088.0                   1104.5                   1105.6                   1102.1                   728.10                   854.07                   1063.6                   1083.6                   1086.4                   1083.5                   732.78                   880.75                   1102.0                   1116.5                   1116.7                   1112.9                   726.39                   893.16                   1132.7                   1144.3                   1143.2                   1138.8                   673.64                   749.88                   967.84                   1014.7                   1032.1                   1033.5                   630.82                   684.54                   796.34                   832.55                   851.36                   855.00
20.000                   3.0000                   1.0000                   2000.0                   4000.0                   65.000                   760.53                   901.68                   1085.2                   1099.2                   1099.7                   1096.2                   769.36                   924.57                   1107.9                   1118.5                   1117.7                   1113.7                   781.55                   954.16                   1130.8                   1138.1                   1135.9                   1131.5                   781.98                   954.79                   1131.0                   1138.1                   1135.9                   1131.5                   766.74                   917.75                   1101.5                   1113.1                   1112.6                   1108.7                   759.97                   901.44                   1086.0                   1100.0                   1100.5                   1096.9                   767.50                   923.84                   1110.3                   1120.7                   1119.7                   1115.7                   763.43                   940.51                   1136.2                   1144.1                   1142.0                   1137.5                   699.61                   784.98                   1006.6                   1046.1                   1058.2                   1057.9                   657.21                   706.44                   818.39                   852.91                   870.51                   873.71
20.000                   3.0000                   1.0000                   2000.0                   4000.0                   70.000                   801.43                   947.84                   1103.8                   1112.7                   1111.5                   1107.5                   813.05                   966.19                   1117.4                   1124.3                   1122.4                   1118.1                   828.79                   990.09                   1132.9                   1137.7                   1134.9                   1130.3                   829.42                   990.71                   1133.0                   1137.7                   1134.9                   1130.4                   809.59                   960.68                   1113.4                   1120.9                   1119.2                   1115.0                   800.43                   947.21                   1104.1                   1113.0                   1111.9                   1107.8                   810.15                   964.75                   1118.4                   1125.3                   1123.4                   1119.1                   808.56                   983.37                   1139.6                   1144.6                   1141.7                   1137.1                   723.36                   822.66                   1043.2                   1074.8                   1082.3                   1080.5                   680.72                   726.25                   839.58                   872.14                   888.50                   891.25
20.000                   3.0000                   1.0000                   2000.0                   4000.0                   75.000                   856.87                   990.84                   1117.7                   1122.9                   1120.5                   1116.2                   868.83                   1004.6                   1126.0                   1130.2                   1127.4                   1122.9                   884.82                   1022.7                   1136.4                   1139.3                   1135.9                   1131.3                   885.58                   1023.3                   1136.6                   1139.4                   1136.0                   1131.4                   865.17                   1000.4                   1123.5                   1128.0                   1125.3                   1120.9                   855.43                   989.95                   1117.6                   1122.9                   1120.6                   1116.3                   865.17                   1002.7                   1126.2                   1130.4                   1127.6                   1123.2                   866.88                   1020.7                   1143.5                   1146.3                   1142.8                   1138.1                   745.04                   863.62                   1073.6                   1097.2                   1101.2                   1098.4                   700.57                   743.82                   859.65                   890.03                   905.12                   907.43