% Model:              batchmodel_COIL_N_20_COIL_kr_3_COIL_kh_2_FUNZ_freq_2000_FUNZ_I_eff_1000.mph
% Version:            COMSOL 6.0.0.318
% Date:               Feb 9 2022, 03:40
% Table:              Tabella 1 - GRIGLIA_T
% COIL_N                 COIL_kr                  COIL_kh                  FUNZ_freq                FUNZ_I_eff               Time (s)                 Temperatura (degC), Point: (0, 0)Temperatura (degC), Point: (15, 0)Temperatura (degC), Point: (25.641, 0)Temperatura (degC), Point: (27.821, 0)Temperatura (degC), Point: (29.128, 0)Temperatura (degC), Point: (29.99, 0)Temperatura (degC), Point: (0, 62.5)Temperatura (degC), Point: (15, 62.5)Temperatura (degC), Point: (25.641, 62.5)Temperatura (degC), Point: (27.821, 62.5)Temperatura (degC), Point: (29.128, 62.5)Temperatura (degC), Point: (29.99, 62.5)Temperatura (degC), Point: (0, 125)Temperatura (degC), Point: (15, 125)Temperatura (degC), Point: (25.641, 125)Temperatura (degC), Point: (27.821, 125)Temperatura (degC), Point: (29.128, 125)Temperatura (degC), Point: (29.99, 125)Temperatura (degC), Point: (0, 187.5)Temperatura (degC), Point: (15, 187.5)Temperatura (degC), Point: (25.641, 187.5)Temperatura (degC), Point: (27.821, 187.5)Temperatura (degC), Point: (29.128, 187.5)Temperatura (degC), Point: (29.99, 187.5)Temperatura (degC), Point: (0, 250)Temperatura (degC), Point: (15, 250)Temperatura (degC), Point: (25.641, 250)Temperatura (degC), Point: (27.821, 250)Temperatura (degC), Point: (29.128, 250)Temperatura (degC), Point: (29.99, 250)Temperatura (degC), Point: (0, 312.5)Temperatura (degC), Point: (15, 312.5)Temperatura (degC), Point: (25.641, 312.5)Temperatura (degC), Point: (27.821, 312.5)Temperatura (degC), Point: (29.128, 312.5)Temperatura (degC), Point: (29.99, 312.5)Temperatura (degC), Point: (0, 375)Temperatura (degC), Point: (15, 375)Temperatura (degC), Point: (25.641, 375)Temperatura (degC), Point: (27.821, 375)Temperatura (degC), Point: (29.128, 375)Temperatura (degC), Point: (29.99, 375)Temperatura (degC), Point: (0, 437.5)Temperatura (degC), Point: (15, 437.5)Temperatura (degC), Point: (25.641, 437.5)Temperatura (degC), Point: (27.821, 437.5)Temperatura (degC), Point: (29.128, 437.5)Temperatura (degC), Point: (29.99, 437.5)Temperatura (degC), Point: (0, 468.75)Temperatura (degC), Point: (15, 468.75)Temperatura (degC), Point: (25.641, 468.75)Temperatura (degC), Point: (27.821, 468.75)Temperatura (degC), Point: (29.128, 468.75)Temperatura (degC), Point: (29.99, 468.75)Temperatura (degC), Point: (0, 492.19)Temperatura (degC), Point: (15, 492.19)Temperatura (degC), Point: (25.641, 492.19)Temperatura (degC), Point: (27.821, 492.19)Temperatura (degC), Point: (29.128, 492.19)Temperatura (degC), Point: (29.99, 492.19)
20.000                   3.0000                   2.0000                   2000.0                   1000.0                   0.0000                   20.000                   20.000                   20.000                   20.000                   20.001                   20.046                   20.000                   20.000                   20.000                   20.000                   20.001                   20.046                   20.000                   20.000                   20.000                   20.000                   20.001                   20.046                   20.000                   20.000                   20.000                   20.000                   20.001                   20.046                   20.000                   20.000                   20.000                   20.000                   20.001                   20.046                   20.000                   20.000                   20.000                   20.000                   20.001                   20.046                   20.000                   20.000                   20.000                   20.000                   20.001                   20.046                   20.000                   20.000                   20.000                   20.000                   20.001                   20.044                   20.000                   20.000                   20.000                   20.000                   20.001                   20.039                   20.000                   20.000                   20.000                   20.000                   20.000                   20.025
20.000                   3.0000                   2.0000                   2000.0                   1000.0                   5.0000                   21.173                   24.547                   37.527                   42.220                   45.341                   46.861                   21.173                   24.549                   37.546                   42.255                   45.368                   46.888                   21.173                   24.549                   37.544                   42.252                   45.365                   46.884                   21.173                   24.548                   37.541                   42.247                   45.360                   46.880                   21.171                   24.539                   37.475                   42.149                   45.254                   46.770                   21.183                   24.592                   37.735                   42.490                   45.601                   47.108                   21.178                   24.573                   37.632                   42.320                   45.438                   46.974                   21.215                   24.756                   38.586                   43.606                   46.758                   48.314                   21.032                   24.060                   36.004                   40.321                   42.857                   44.153                   20.865                   23.009                   29.586                   31.811                   33.231                   33.989
20.000                   3.0000                   2.0000                   2000.0                   1000.0                   10.000                   27.102                   34.387                   52.295                   57.684                   61.193                   62.905                   27.100                   34.380                   52.240                   57.596                   61.120                   62.832                   27.100                   34.380                   52.238                   57.592                   61.118                   62.831                   27.101                   34.383                   52.253                   57.613                   61.145                   62.860                   27.132                   34.460                   52.521                   57.967                   61.542                   63.306                   27.293                   34.841                   53.591                   59.289                   62.833                   64.495                   27.264                   34.799                   53.592                   59.302                   62.792                   64.511                   27.466                   35.328                   55.075                   60.928                   64.445                   66.053                   26.395                   33.200                   50.836                   56.094                   58.873                   60.237                   25.207                   30.078                   39.946                   42.653                   44.207                   44.996
20.000                   3.0000                   2.0000                   2000.0                   1000.0                   15.000                   36.776                   46.679                   68.374                   74.728                   78.739                   80.688                   36.772                   46.670                   68.348                   74.681                   78.693                   80.638                   36.776                   46.679                   68.381                   74.727                   78.752                   80.707                   36.804                   46.729                   68.494                   74.862                   78.902                   80.864                   36.891                   46.901                   68.943                   75.396                   79.471                   81.507                   37.186                   47.357                   69.541                   75.929                   79.671                   81.446                   37.131                   47.289                   69.516                   75.993                   79.809                   81.633                   37.370                   47.816                   70.609                   77.005                   80.737                   82.374                   35.076                   44.302                   65.341                   71.302                   74.194                   75.561                   32.495                   39.207                   51.022                   54.047                   55.652                   56.438
20.000                   3.0000                   2.0000                   2000.0                   1000.0                   20.000                   48.158                   59.955                   84.249                   91.137                   95.380                   97.416                   48.157                   59.961                   84.325                   91.228                   95.447                   97.479                   48.169                   59.989                   84.422                   91.361                   95.611                   97.664                   48.248                   60.118                   84.673                   91.648                   95.920                   97.980                   48.327                   60.158                   84.359                   91.070                   95.130                   97.146                   48.712                   60.632                   84.782                   91.461                   95.230                   96.992                   48.692                   60.717                   85.392                   92.406                   96.483                   98.375                   48.759                   60.870                   85.316                   91.857                   95.597                   97.227                   45.180                   56.054                   79.214                   85.560                   88.506                   89.818                   41.178                   49.188                   62.421                   65.661                   67.344                   68.151
20.000                   3.0000                   2.0000                   2000.0                   1000.0                   25.000                   61.644                   74.675                   100.80                   107.99                   112.26                   114.27                   61.662                   74.727                   101.04                   108.25                   112.51                   114.54                   61.683                   74.767                   101.15                   108.39                   112.69                   114.74                   61.818                   74.958                   101.45                   108.71                   113.02                   115.07                   62.036                   75.175                   101.24                   108.15                   112.21                   114.16                   62.433                   75.613                   101.95                   109.25                   113.27                   115.14                   62.277                   75.454                   101.74                   108.98                   113.15                   115.09                   61.819                   74.805                   100.27                   106.88                   110.52                   112.08                   56.927                   68.672                   92.764                   99.192                   102.04                   103.23                   51.999                   61.132                   75.946                   79.579                   81.391                   82.209
20.000                   3.0000                   2.0000                   2000.0                   1000.0                   30.000                   75.566                   88.504                   113.37                   119.97                   123.98                   125.83                   75.598                   88.570                   113.56                   120.18                   124.20                   126.06                   75.626                   88.614                   113.65                   120.29                   124.32                   126.19                   75.811                   88.847                   113.96                   120.61                   124.64                   126.51                   76.160                   89.211                   114.10                   120.56                   124.47                   126.30                   76.509                   89.552                   114.59                   121.28                   125.21                   127.02                   76.207                   89.214                   114.13                   120.74                   124.72                   126.55                   74.871                   87.454                   111.24                   117.36                   120.96                   122.56                   68.492                   79.641                   101.05                   106.57                   109.47                   110.75                   62.393                   70.872                   84.362                   87.512                   89.219                   90.024
20.000                   3.0000                   2.0000                   2000.0                   1000.0                   35.000                   89.174                   101.39                   123.85                   129.57                   133.13                   134.75                   89.220                   101.47                   123.98                   129.71                   133.28                   134.91                   89.258                   101.53                   124.10                   129.86                   133.45                   135.07                   89.502                   101.82                   124.45                   130.22                   133.81                   135.43                   90.043                   102.44                   125.23                   131.05                   134.68                   136.32                   90.333                   102.69                   125.44                   131.23                   134.85                   136.52                   90.063                   102.54                   125.79                   131.81                   135.55                   137.25                   87.796                   99.741                   121.85                   127.54                   131.07                   132.70                   79.941                   90.317                   109.45                   114.33                   117.35                   118.77                   72.744                   80.404                   92.464                   95.163                   96.740                   97.491
20.000                   3.0000                   2.0000                   2000.0                   1000.0                   40.000                   102.01                   113.27                   133.31                   138.21                   141.20                   142.58                   102.07                   113.37                   133.46                   138.37                   141.37                   142.75                   102.12                   113.46                   133.70                   138.69                   141.77                   143.14                   102.44                   113.84                   134.17                   139.17                   142.24                   143.61                   103.28                   114.91                   135.88                   141.13                   144.39                   145.81                   103.53                   115.11                   136.05                   141.17                   144.33                   145.86                   103.58                   115.71                   138.50                   144.44                   148.07                   149.70                   100.49                   112.14                   134.05                   139.74                   143.12                   144.74                   91.272                   101.40                   120.89                   126.13                   129.25                   130.74                   83.226                   90.780                   102.85                   105.63                   107.17                   107.82
20.000                   3.0000                   2.0000                   2000.0                   1000.0                   45.000                   113.97                   125.01                   145.91                   151.53                   155.15                   156.79                   114.02                   125.08                   146.01                   151.63                   155.25                   156.90                   114.09                   125.17                   146.17                   151.82                   155.45                   157.10                   114.46                   125.60                   146.68                   152.34                   155.98                   157.62                   115.55                   126.90                   148.39                   154.16                   157.87                   159.53                   115.77                   127.08                   148.46                   154.18                   157.85                   159.54                   116.12                   127.88                   150.28                   156.28                   160.09                   161.80                   112.07                   123.31                   144.61                   150.28                   153.88                   155.54                   101.34                   110.82                   128.76                   133.53                   136.54                   137.96                   92.300                   99.063                   110.12                   112.71                   114.29                   115.05
20.000                   3.0000                   2.0000                   2000.0                   1000.0                   50.000                   125.94                   137.06                   158.79                   164.80                   168.70                   170.45                   125.99                   137.12                   158.86                   164.88                   168.78                   170.53                   126.06                   137.20                   158.97                   164.99                   168.89                   170.65                   126.48                   137.67                   159.51                   165.54                   169.45                   171.20                   127.73                   139.09                   161.16                   167.23                   171.15                   172.90                   127.97                   139.28                   161.26                   167.32                   171.23                   172.99                   128.46                   140.10                   162.55                   168.66                   172.58                   174.34                   123.37                   134.41                   155.65                   161.41                   165.12                   166.80                   111.05                   120.13                   137.47                   142.13                   145.12                   146.52                   101.04                   107.30                   117.79                   120.31                   121.88                   122.66
20.000                   3.0000                   2.0000                   2000.0                   1000.0                   55.000                   138.00                   149.36                   171.80                   178.02                   182.02                   183.80                   138.05                   149.41                   171.87                   178.09                   182.09                   183.87                   138.12                   149.49                   171.96                   178.18                   182.19                   183.97                   138.58                   149.99                   172.51                   178.74                   182.76                   184.54                   139.93                   151.44                   174.07                   180.31                   184.32                   186.10                   140.19                   151.67                   174.27                   180.50                   184.52                   186.30                   140.70                   152.37                   175.13                   181.36                   185.36                   187.13                   134.47                   145.48                   166.95                   172.83                   176.61                   178.29                   120.54                   129.44                   146.72                   151.44                   154.47                   155.88                   109.60                   115.57                   125.80                   128.31                   129.86                   130.62
20.000                   3.0000                   2.0000                   2000.0                   1000.0                   60.000                   150.26                   161.87                   184.84                   191.19                   195.27                   197.07                   150.31                   161.91                   184.89                   191.25                   195.33                   197.12                   150.39                   162.00                   184.99                   191.35                   195.43                   197.22                   150.87                   162.51                   185.55                   191.91                   196.01                   197.80                   152.23                   163.94                   187.03                   193.39                   197.48                   199.27                   152.52                   164.22                   187.29                   193.66                   197.75                   199.54                   152.94                   164.74                   187.84                   194.19                   198.26                   200.04                   145.46                   156.56                   178.32                   184.29                   188.12                   189.82                   129.96                   138.84                   156.26                   161.03                   164.10                   165.52                   118.12                   123.99                   134.12                   136.62                   138.16                   138.90
20.000                   3.0000                   2.0000                   2000.0                   1000.0                   65.000                   162.52                   174.38                   197.87                   204.36                   208.52                   210.33                   162.56                   174.42                   197.92                   204.41                   208.57                   210.38                   162.65                   174.51                   198.01                   204.51                   208.67                   210.48                   163.15                   175.04                   198.58                   205.09                   209.26                   211.07                   164.54                   176.45                   199.98                   206.47                   210.63                   212.44                   164.86                   176.77                   200.31                   206.81                   210.98                   212.79                   165.18                   177.10                   200.56                   207.02                   211.16                   212.96                   156.46                   167.64                   189.69                   195.75                   199.64                   201.34                   139.37                   148.24                   165.79                   170.63                   173.73                   175.15                   126.64                   132.40                   142.45                   144.93                   146.46                   147.18
20.000                   3.0000                   2.0000                   2000.0                   1000.0                   70.000                   174.92                   187.01                   210.98                   217.59                   221.83                   223.65                   174.96                   187.04                   211.02                   217.63                   221.87                   223.70                   175.05                   187.14                   211.12                   217.74                   221.98                   223.80                   175.57                   187.68                   211.69                   218.32                   222.57                   224.39                   176.94                   189.06                   213.03                   219.64                   223.88                   225.70                   177.29                   189.41                   213.41                   220.03                   224.28                   226.10                   177.44                   189.54                   213.38                   219.96                   224.17                   225.99                   167.43                   178.74                   201.10                   207.26                   211.21                   212.93                   148.87                   157.79                   175.52                   180.42                   183.56                   184.99                   135.31                   141.06                   151.10                   153.59                   155.11                   155.82
20.000                   3.0000                   2.0000                   2000.0                   1000.0                   75.000                   187.41                   199.72                   224.13                   230.87                   235.18                   237.02                   187.44                   199.75                   224.16                   230.90                   235.22                   237.06                   187.54                   199.86                   224.27                   231.01                   235.33                   237.17                   188.07                   200.40                   224.84                   231.59                   235.92                   237.76                   189.41                   201.74                   226.14                   232.88                   237.20                   239.03                   189.78                   202.12                   226.56                   233.31                   237.63                   239.46                   189.72                   202.01                   226.28                   232.98                   237.27                   239.10                   178.38                   189.85                   212.55                   218.81                   222.82                   224.56                   158.42                   167.43                   185.38                   190.34                   193.52                   194.96                   144.10                   149.87                   159.98                   162.48                   164.01                   164.71