% Model:              batchmodel_COIL_N_20_COIL_kr_1.5_COIL_kh_2_FUNZ_freq_10000_FUNZ_I_eff_1000.mph
% Version:            COMSOL 6.0.0.318
% Date:               Feb 9 2022, 01:24
% Table:              Tabella 1 - GRIGLIA_T
% COIL_N                 COIL_kr                  COIL_kh                  FUNZ_freq                FUNZ_I_eff               Time (s)                 Temperatura (degC), Point: (0, 0)Temperatura (degC), Point: (15, 0)Temperatura (degC), Point: (28.051, 0)Temperatura (degC), Point: (29.025, 0)Temperatura (degC), Point: (29.61, 0)Temperatura (degC), Point: (29.99, 0)Temperatura (degC), Point: (0, 62.5)Temperatura (degC), Point: (15, 62.5)Temperatura (degC), Point: (28.051, 62.5)Temperatura (degC), Point: (29.025, 62.5)Temperatura (degC), Point: (29.61, 62.5)Temperatura (degC), Point: (29.99, 62.5)Temperatura (degC), Point: (0, 125)Temperatura (degC), Point: (15, 125)Temperatura (degC), Point: (28.051, 125)Temperatura (degC), Point: (29.025, 125)Temperatura (degC), Point: (29.61, 125)Temperatura (degC), Point: (29.99, 125)Temperatura (degC), Point: (0, 187.5)Temperatura (degC), Point: (15, 187.5)Temperatura (degC), Point: (28.051, 187.5)Temperatura (degC), Point: (29.025, 187.5)Temperatura (degC), Point: (29.61, 187.5)Temperatura (degC), Point: (29.99, 187.5)Temperatura (degC), Point: (0, 250)Temperatura (degC), Point: (15, 250)Temperatura (degC), Point: (28.051, 250)Temperatura (degC), Point: (29.025, 250)Temperatura (degC), Point: (29.61, 250)Temperatura (degC), Point: (29.99, 250)Temperatura (degC), Point: (0, 312.5)Temperatura (degC), Point: (15, 312.5)Temperatura (degC), Point: (28.051, 312.5)Temperatura (degC), Point: (29.025, 312.5)Temperatura (degC), Point: (29.61, 312.5)Temperatura (degC), Point: (29.99, 312.5)Temperatura (degC), Point: (0, 375)Temperatura (degC), Point: (15, 375)Temperatura (degC), Point: (28.051, 375)Temperatura (degC), Point: (29.025, 375)Temperatura (degC), Point: (29.61, 375)Temperatura (degC), Point: (29.99, 375)Temperatura (degC), Point: (0, 437.5)Temperatura (degC), Point: (15, 437.5)Temperatura (degC), Point: (28.051, 437.5)Temperatura (degC), Point: (29.025, 437.5)Temperatura (degC), Point: (29.61, 437.5)Temperatura (degC), Point: (29.99, 437.5)Temperatura (degC), Point: (0, 468.75)Temperatura (degC), Point: (15, 468.75)Temperatura (degC), Point: (28.051, 468.75)Temperatura (degC), Point: (29.025, 468.75)Temperatura (degC), Point: (29.61, 468.75)Temperatura (degC), Point: (29.99, 468.75)Temperatura (degC), Point: (0, 492.19)Temperatura (degC), Point: (15, 492.19)Temperatura (degC), Point: (28.051, 492.19)Temperatura (degC), Point: (29.025, 492.19)Temperatura (degC), Point: (29.61, 492.19)Temperatura (degC), Point: (29.99, 492.19)
20.000                   1.5000                   2.0000                   10000                    1000.0                   0.0000                   20.000                   20.000                   20.000                   20.000                   20.014                   20.196                   20.000                   20.000                   20.000                   20.000                   20.015                   20.201                   20.000                   20.000                   20.000                   20.000                   20.016                   20.205                   20.000                   20.000                   20.000                   20.000                   20.015                   20.203                   20.000                   20.000                   20.000                   20.000                   20.014                   20.196                   20.000                   20.000                   20.000                   20.000                   20.015                   20.200                   20.000                   20.000                   20.000                   20.000                   20.016                   20.205                   20.000                   20.000                   20.000                   20.000                   20.015                   20.204                   20.000                   20.000                   20.000                   20.000                   20.015                   20.202                   20.000                   20.000                   20.000                   20.000                   20.011                   20.176
20.000                   1.5000                   2.0000                   10000                    1000.0                   5.0000                   22.227                   30.183                   77.303                   83.699                   87.856                   89.766                   22.219                   30.224                   76.752                   82.738                   86.476                   88.217                   22.241                   30.378                   78.766                   85.269                   89.505                   91.427                   22.228                   30.265                   76.648                   82.540                   86.086                   87.758                   22.215                   30.201                   77.009                   83.117                   86.997                   88.821                   22.219                   30.231                   77.614                   84.120                   88.227                   90.120                   22.244                   30.387                   78.429                   84.658                   88.528                   90.318                   22.237                   30.343                   77.805                   83.942                   87.813                   89.646                   22.217                   30.252                   77.522                   83.636                   87.456                   89.256                   22.590                   30.748                   73.522                   79.028                   82.360                   83.942
20.000                   1.5000                   2.0000                   10000                    1000.0                   10.000                   37.055                   55.364                   114.93                   121.59                   125.74                   127.61                   36.972                   55.257                   115.18                   121.95                   126.17                   128.10                   37.103                   55.628                   116.60                   123.50                   127.80                   129.76                   37.020                   55.326                   115.14                   121.92                   126.17                   128.10                   37.008                   55.297                   114.79                   121.41                   125.54                   127.41                   37.057                   55.446                   115.43                   122.14                   126.33                   128.23                   37.107                   55.623                   116.38                   123.24                   127.54                   129.49                   37.071                   55.547                   116.15                   122.98                   127.24                   129.17                   36.878                   55.022                   114.57                   121.33                   125.56                   127.49                   37.525                   55.024                   107.64                   113.26                   116.75                   118.37
20.000                   1.5000                   2.0000                   10000                    1000.0                   15.000                   61.477                   84.993                   152.47                   159.85                   164.45                   166.44                   61.275                   84.769                   152.50                   159.83                   164.32                   166.38                   61.491                   85.235                   154.00                   161.52                   166.20                   168.32                   61.374                   84.932                   153.15                   160.62                   165.19                   167.23                   61.299                   84.705                   151.61                   158.72                   163.06                   165.05                   61.394                   84.915                   152.24                   159.44                   163.81                   165.80                   61.449                   85.160                   153.63                   161.04                   165.64                   167.74                   61.338                   84.992                   153.42                   160.82                   165.36                   167.41                   60.821                   84.024                   151.33                   158.67                   163.17                   165.24                   61.262                   83.335                   142.63                   148.85                   152.55                   154.26
20.000                   1.5000                   2.0000                   10000                    1000.0                   20.000                   89.889                   116.40                   189.50                   197.34                   202.22                   204.28                   89.612                   116.18                   189.71                   197.51                   202.26                   204.35                   89.909                   116.78                   191.86                   199.94                   204.95                   207.12                   89.843                   116.65                   191.99                   200.15                   205.07                   207.17                   89.576                   115.96                   188.24                   195.73                   200.23                   202.26                   89.678                   116.18                   189.29                   197.03                   201.67                   203.72                   89.786                   116.61                   191.60                   199.64                   204.53                   206.67                   89.609                   116.39                   191.43                   199.51                   204.43                   206.56                   88.683                   114.91                   188.30                   196.22                   201.02                   203.13                   88.924                   113.70                   177.91                   184.54                   188.44                   190.21
20.000                   1.5000                   2.0000                   10000                    1000.0                   25.000                   120.21                   148.72                   226.03                   234.18                   239.18                   241.26                   119.91                   148.54                   226.53                   234.74                   239.78                   241.89                   120.26                   149.25                   228.94                   237.40                   242.61                   244.74                   120.29                   149.28                   229.22                   237.74                   242.88                   244.99                   119.82                   148.23                   224.85                   232.73                   237.44                   239.51                   119.88                   148.41                   226.11                   234.33                   239.35                   241.44                   120.06                   148.98                   228.64                   237.13                   242.29                   244.42                   119.83                   148.74                   228.62                   237.17                   242.38                   244.53                   118.37                   146.60                   224.40                   232.74                   237.81                   239.92                   118.05                   144.38                   211.48                   218.27                   222.31                   224.08
20.000                   1.5000                   2.0000                   10000                    1000.0                   30.000                   151.78                   181.71                   262.89                   271.47                   276.74                   278.88                   151.50                   181.58                   263.64                   272.35                   277.71                   279.89                   151.85                   182.25                   265.76                   274.67                   280.17                   282.38                   151.95                   182.32                   265.71                   274.60                   280.03                   282.22                   151.38                   181.25                   262.06                   270.51                   275.65                   277.79                   151.38                   181.36                   263.07                   271.75                   277.08                   279.25                   151.60                   181.94                   265.37                   274.29                   279.75                   281.96                   151.28                   181.60                   265.01                   273.94                   279.41                   281.62                   149.08                   178.66                   260.13                   268.88                   274.24                   276.42                   147.29                   174.37                   243.11                   250.07                   254.30                   256.10
20.000                   1.5000                   2.0000                   10000                    1000.0                   35.000                   183.36                   214.70                   299.77                   308.78                   314.33                   316.54                   183.08                   214.61                   300.75                   309.95                   315.64                   317.89                   183.43                   215.26                   302.60                   311.96                   317.74                   320.03                   183.61                   215.37                   302.20                   311.47                   317.20                   319.46                   182.94                   214.26                   299.27                   308.28                   313.85                   316.06                   182.88                   214.31                   300.02                   309.16                   314.81                   317.05                   183.13                   214.90                   302.11                   311.45                   317.22                   319.50                   182.72                   214.45                   301.42                   310.72                   316.47                   318.74                   179.80                   210.72                   295.87                   305.02                   310.68                   312.93                   176.55                   204.37                   274.79                   281.93                   286.34                   288.19
20.000                   1.5000                   2.0000                   10000                    1000.0                   40.000                   215.04                   247.77                   337.28                   346.87                   352.74                   355.00                   214.69                   247.52                   337.61                   347.29                   353.26                   355.56                   215.10                   248.27                   339.79                   349.63                   355.71                   358.05                   215.18                   248.18                   338.78                   348.51                   354.53                   356.84                   214.54                   247.19                   336.39                   345.98                   351.95                   354.21                   214.44                   247.17                   336.72                   346.29                   352.17                   354.46                   214.73                   247.81                   338.92                   348.71                   354.74                   357.06                   214.20                   247.25                   338.14                   347.90                   353.91                   356.24                   210.47                   242.65                   331.65                   341.27                   347.18                   349.47                   206.12                   234.82                   307.79                   315.22                   319.81                   321.69
20.000                   1.5000                   2.0000                   10000                    1000.0                   45.000                   246.73                   280.83                   374.79                   384.96                   391.15                   393.46                   246.29                   280.43                   374.47                   384.64                   390.88                   393.23                   246.76                   281.29                   376.98                   387.31                   393.67                   396.06                   246.75                   281.00                   375.36                   385.56                   391.86                   394.22                   246.14                   280.12                   373.50                   383.68                   390.05                   392.36                   246.00                   280.04                   373.43                   383.42                   389.54                   391.87                   246.32                   280.71                   375.73                   385.98                   392.26                   394.62                   245.68                   280.04                   374.87                   385.08                   391.36                   393.73                   241.15                   274.57                   367.44                   377.51                   383.69                   386.01                   235.70                   265.26                   340.80                   348.51                   353.29                   355.19
20.000                   1.5000                   2.0000                   10000                    1000.0                   50.000                   278.35                   314.05                   413.37                   424.19                   430.76                   433.14                   277.90                   313.64                   413.15                   424.00                   430.63                   433.05                   278.37                   314.50                   415.65                   426.66                   433.41                   435.87                   278.31                   314.15                   413.95                   424.84                   431.52                   433.95                   277.75                   313.32                   412.12                   422.95                   429.68                   432.06                   277.60                   313.25                   412.11                   422.79                   429.30                   431.69                   277.93                   313.92                   414.42                   425.37                   432.04                   434.47                   277.10                   313.06                   413.34                   424.24                   430.91                   433.35                   271.71                   306.65                   404.73                   415.46                   422.01                   424.41                   265.06                   295.73                   374.65                   382.77                   387.79                   389.73
20.000                   1.5000                   2.0000                   10000                    1000.0                   55.000                   309.96                   347.30                   452.23                   463.74                   470.69                   473.14                   309.52                   346.94                   452.33                   463.91                   470.96                   473.45                   309.98                   347.77                   454.71                   466.47                   473.63                   476.16                   309.88                   347.39                   453.10                   464.72                   471.82                   474.32                   309.35                   346.60                   451.13                   462.65                   469.73                   472.18                   309.21                   346.54                   451.33                   462.76                   469.71                   472.18                   309.53                   347.21                   453.64                   465.34                   472.44                   474.94                   308.51                   346.14                   452.30                   463.94                   471.04                   473.55                   302.23                   338.76                   442.42                   453.87                   460.83                   463.30                   294.37                   326.19                   408.72                   417.29                   422.57                   424.55
20.000                   1.5000                   2.0000                   10000                    1000.0                   60.000                   341.56                   380.56                   491.10                   503.28                   510.63                   513.15                   341.13                   380.24                   491.50                   503.83                   511.29                   513.85                   341.58                   381.03                   493.78                   506.28                   513.86                   516.45                   341.44                   380.63                   492.24                   504.61                   512.11                   514.68                   340.96                   379.88                   490.15                   502.34                   509.78                   512.30                   340.82                   379.84                   490.54                   502.74                   510.12                   512.66                   341.14                   380.49                   492.85                   505.31                   512.84                   515.42                   339.92                   379.22                   491.25                   503.65                   511.16                   513.74                   332.76                   370.87                   480.12                   492.28                   499.66                   502.20                   323.67                   356.66                   442.80                   451.81                   457.35                   459.38
20.000                   1.5000                   2.0000                   10000                    1000.0                   65.000                   373.17                   413.82                   529.97                   542.82                   550.57                   553.15                   372.75                   413.54                   530.68                   543.74                   551.62                   554.25                   373.18                   414.29                   532.85                   546.10                   554.08                   556.74                   373.01                   413.87                   531.38                   544.50                   552.41                   555.05                   372.56                   413.16                   529.16                   542.04                   549.83                   552.42                   372.43                   413.13                   529.76                   542.72                   550.54                   553.15                   372.75                   413.78                   532.06                   545.28                   553.24                   555.89                   371.33                   412.30                   530.20                   543.35                   551.29                   553.94                   363.28                   402.99                   517.82                   530.70                   538.48                   541.10                   352.98                   387.12                   476.88                   486.33                   492.12                   494.20
20.000                   1.5000                   2.0000                   10000                    1000.0                   70.000                   404.09                   446.30                   567.70                   581.25                   589.40                   592.06                   403.68                   446.05                   568.65                   582.44                   590.74                   593.44                   404.10                   446.76                   570.68                   584.65                   593.06                   595.78                   403.90                   446.33                   569.32                   583.17                   591.51                   594.21                   403.48                   445.65                   566.95                   580.49                   588.62                   591.28                   403.36                   445.64                   567.76                   581.47                   589.72                   592.41                   403.68                   446.29                   570.05                   584.01                   592.41                   595.13                   402.07                   444.61                   567.93                   581.82                   590.18                   592.89                   393.24                   434.48                   554.64                   568.24                   576.43                   579.12                   381.84                   417.15                   510.48                   520.38                   526.43                   528.55
20.000                   1.5000                   2.0000                   10000                    1000.0                   75.000                   433.30                   476.80                   602.61                   616.87                   625.48                   628.19                   432.91                   476.57                   603.57                   618.08                   626.83                   629.57                   433.29                   477.22                   605.38                   620.06                   628.90                   631.66                   433.12                   476.85                   604.23                   618.80                   627.57                   630.32                   432.69                   476.14                   601.65                   615.80                   624.28                   626.97                   432.58                   476.16                   602.70                   617.13                   625.83                   628.56                   432.91                   476.81                   604.95                   619.64                   628.49                   631.25                   431.13                   474.96                   602.59                   617.18                   625.97                   628.73                   421.78                   464.40                   589.28                   603.59                   612.19                   614.92                   409.60                   446.09                   542.88                   553.24                   559.56                   561.71