% Model:              batchmodel_COIL_N_20_COIL_kr_3_COIL_kh_2_FUNZ_freq_2000_FUNZ_I_eff_2500.mph
% Version:            COMSOL 6.0.0.318
% Date:               Feb 9 2022, 04:02
% Table:              Tabella 1 - GRIGLIA_T
% COIL_N                 COIL_kr                  COIL_kh                  FUNZ_freq                FUNZ_I_eff               Time (s)                 Temperatura (degC), Point: (0, 0)Temperatura (degC), Point: (15, 0)Temperatura (degC), Point: (25.641, 0)Temperatura (degC), Point: (27.821, 0)Temperatura (degC), Point: (29.128, 0)Temperatura (degC), Point: (29.99, 0)Temperatura (degC), Point: (0, 62.5)Temperatura (degC), Point: (15, 62.5)Temperatura (degC), Point: (25.641, 62.5)Temperatura (degC), Point: (27.821, 62.5)Temperatura (degC), Point: (29.128, 62.5)Temperatura (degC), Point: (29.99, 62.5)Temperatura (degC), Point: (0, 125)Temperatura (degC), Point: (15, 125)Temperatura (degC), Point: (25.641, 125)Temperatura (degC), Point: (27.821, 125)Temperatura (degC), Point: (29.128, 125)Temperatura (degC), Point: (29.99, 125)Temperatura (degC), Point: (0, 187.5)Temperatura (degC), Point: (15, 187.5)Temperatura (degC), Point: (25.641, 187.5)Temperatura (degC), Point: (27.821, 187.5)Temperatura (degC), Point: (29.128, 187.5)Temperatura (degC), Point: (29.99, 187.5)Temperatura (degC), Point: (0, 250)Temperatura (degC), Point: (15, 250)Temperatura (degC), Point: (25.641, 250)Temperatura (degC), Point: (27.821, 250)Temperatura (degC), Point: (29.128, 250)Temperatura (degC), Point: (29.99, 250)Temperatura (degC), Point: (0, 312.5)Temperatura (degC), Point: (15, 312.5)Temperatura (degC), Point: (25.641, 312.5)Temperatura (degC), Point: (27.821, 312.5)Temperatura (degC), Point: (29.128, 312.5)Temperatura (degC), Point: (29.99, 312.5)Temperatura (degC), Point: (0, 375)Temperatura (degC), Point: (15, 375)Temperatura (degC), Point: (25.641, 375)Temperatura (degC), Point: (27.821, 375)Temperatura (degC), Point: (29.128, 375)Temperatura (degC), Point: (29.99, 375)Temperatura (degC), Point: (0, 437.5)Temperatura (degC), Point: (15, 437.5)Temperatura (degC), Point: (25.641, 437.5)Temperatura (degC), Point: (27.821, 437.5)Temperatura (degC), Point: (29.128, 437.5)Temperatura (degC), Point: (29.99, 437.5)Temperatura (degC), Point: (0, 468.75)Temperatura (degC), Point: (15, 468.75)Temperatura (degC), Point: (25.641, 468.75)Temperatura (degC), Point: (27.821, 468.75)Temperatura (degC), Point: (29.128, 468.75)Temperatura (degC), Point: (29.99, 468.75)Temperatura (degC), Point: (0, 492.19)Temperatura (degC), Point: (15, 492.19)Temperatura (degC), Point: (25.641, 492.19)Temperatura (degC), Point: (27.821, 492.19)Temperatura (degC), Point: (29.128, 492.19)Temperatura (degC), Point: (29.99, 492.19)
20.000                   3.0000                   2.0000                   2000.0                   2500.0                   0.0000                   20.000                   20.000                   20.000                   20.000                   20.024                   20.131                   20.000                   20.000                   20.000                   20.000                   20.024                   20.131                   20.000                   20.000                   20.000                   20.000                   20.024                   20.131                   20.000                   20.000                   20.000                   20.000                   20.024                   20.131                   20.000                   20.000                   20.000                   20.000                   20.024                   20.131                   20.000                   20.000                   20.000                   20.000                   20.024                   20.131                   20.000                   20.000                   20.000                   20.000                   20.024                   20.131                   20.000                   20.000                   20.000                   20.000                   20.023                   20.129                   20.000                   20.000                   20.000                   20.000                   20.020                   20.119                   20.000                   20.000                   20.000                   20.000                   20.009                   20.088
20.000                   3.0000                   2.0000                   2000.0                   2500.0                   5.0000                   24.443                   38.667                   96.159                   117.41                   131.75                   137.15                   24.445                   38.683                   96.265                   117.58                   131.96                   137.41                   24.444                   38.683                   96.315                   117.62                   131.90                   137.34                   24.446                   38.690                   96.363                   117.72                   132.10                   137.57                   24.442                   38.667                   96.096                   117.33                   131.70                   137.13                   24.434                   38.638                   96.038                   117.22                   131.32                   136.77                   24.454                   38.728                   96.477                   117.85                   132.25                   137.71                   24.263                   37.868                   92.230                   111.88                   124.97                   129.92                   23.800                   35.989                   84.583                   102.50                   115.16                   119.94                   23.400                   32.736                   66.438                   77.968                   86.348                   89.727
20.000                   3.0000                   2.0000                   2000.0                   2500.0                   10.000                   50.070                   82.019                   162.26                   187.56                   203.82                   209.68                   50.172                   82.310                   163.29                   188.83                   205.15                   211.06                   50.177                   82.378                   163.67                   189.36                   205.83                   211.69                   50.169                   82.321                   163.49                   189.22                   205.72                   211.59                   50.124                   82.121                   162.26                   187.38                   203.36                   209.23                   50.081                   82.102                   162.85                   188.45                   204.77                   210.67                   50.344                   82.777                   164.72                   190.57                   206.84                   212.69                   48.812                   79.540                   157.03                   181.48                   196.93                   202.52                   45.614                   73.190                   143.67                   165.51                   179.01                   183.95                   43.518                   64.491                   112.95                   126.62                   134.65                   138.07
20.000                   3.0000                   2.0000                   2000.0                   2500.0                   15.000                   91.081                   132.74                   226.32                   254.82                   272.75                   278.86                   91.369                   133.26                   227.30                   255.90                   273.89                   279.98                   91.356                   133.27                   227.18                   255.58                   273.45                   279.56                   91.342                   133.21                   227.15                   255.65                   273.58                   279.69                   91.277                   133.06                   226.90                   255.52                   273.57                   279.67                   91.162                   132.92                   226.71                   255.22                   273.19                   279.29                   91.734                   133.87                   228.09                   256.62                   274.63                   280.72                   88.060                   128.09                   217.41                   244.28                   261.32                   267.21                   80.194                   115.32                   192.37                   214.91                   229.18                   234.35                   73.409                   100.01                   152.36                   166.27                   174.93                   178.43
20.000                   3.0000                   2.0000                   2000.0                   2500.0                   20.000                   139.66                   187.17                   292.29                   324.41                   344.23                   350.67                   140.01                   187.66                   292.99                   325.13                   345.00                   351.41                   139.97                   187.61                   292.71                   324.67                   344.41                   350.82                   139.98                   187.62                   292.84                   324.89                   344.71                   351.13                   139.93                   187.53                   292.88                   325.11                   345.10                   351.51                   139.77                   187.32                   292.45                   324.55                   344.40                   350.81                   140.30                   188.03                   293.11                   325.09                   344.96                   351.36                   133.88                   179.08                   277.99                   307.76                   326.22                   332.30                   120.17                   159.02                   242.31                   266.60                   281.71                   286.96                   108.84                   137.95                   193.89                   208.58                   217.57                   221.16
20.000                   3.0000                   2.0000                   2000.0                   2500.0                   25.000                   190.37                   242.67                   358.77                   394.53                   416.22                   422.95                   190.72                   243.07                   359.12                   394.84                   416.56                   423.27                   190.66                   242.97                   358.89                   394.60                   416.23                   422.90                   190.71                   243.07                   359.14                   394.85                   416.58                   423.30                   190.67                   243.02                   359.17                   394.97                   416.77                   423.47                   190.47                   242.75                   358.64                   394.36                   416.03                   422.72                   190.85                   243.12                   358.75                   394.31                   415.97                   422.68                   181.51                   230.82                   339.00                   371.87                   391.85                   398.11                   161.78                   203.61                   293.81                   320.53                   336.84                   342.18                   145.94                   176.95                   236.86                   252.75                   262.37                   266.08
20.000                   3.0000                   2.0000                   2000.0                   2500.0                   30.000                   241.77                   298.51                   425.33                   464.63                   487.94                   494.84                   242.10                   298.81                   425.49                   464.77                   488.09                   494.97                   242.03                   298.70                   425.30                   464.67                   487.96                   494.78                   242.13                   298.89                   425.74                   465.08                   488.50                   495.39                   242.07                   298.81                   425.58                   464.89                   488.21                   495.06                   241.83                   298.48                   424.94                   464.16                   487.37                   494.24                   242.07                   298.68                   425.11                   464.32                   487.68                   494.59                   229.75                   283.01                   400.82                   436.96                   458.69                   465.18                   204.40                   249.46                   348.29                   378.19                   396.26                   401.82                   184.50                   217.49                   282.30                   299.69                   310.06                   313.87
20.000                   3.0000                   2.0000                   2000.0                   2500.0                   35.000                   291.78                   352.10                   487.60                   529.83                   554.37                   561.36                   292.03                   352.29                   487.86                   530.30                   554.96                   561.93                   291.94                   352.15                   487.53                   530.01                   554.67                   561.64                   292.03                   352.30                   487.93                   530.42                   555.23                   562.21                   291.97                   352.24                   487.80                   530.29                   554.85                   561.75                   291.77                   352.00                   487.43                   529.93                   554.54                   561.50                   291.80                   351.97                   487.38                   529.88                   554.68                   561.71                   276.06                   332.05                   456.13                   494.12                   516.70                   523.24                   245.68                   292.96                   396.92                   428.39                   447.42                   453.13                   221.82                   256.01                   323.29                   341.33                   352.08                   355.89
20.000                   3.0000                   2.0000                   2000.0                   2500.0                   40.000                   341.28                   404.89                   548.35                   593.29                   618.93                   625.98                   341.44                   404.97                   548.80                   594.26                   620.16                   627.20                   341.34                   404.79                   548.29                   593.67                   619.60                   626.70                   341.38                   404.86                   548.56                   594.03                   620.11                   627.15                   341.32                   404.81                   548.53                   594.09                   619.79                   626.69                   341.21                   404.72                   548.58                   594.27                   620.22                   627.26                   341.02                   404.44                   548.19                   593.86                   620.02                   627.13                   321.68                   379.97                   509.12                   548.47                   571.58                   578.10                   286.49                   335.62                   443.46                   475.94                   495.63                   501.47                   258.70                   293.81                   362.71                   381.08                   392.09                   395.87
20.000                   3.0000                   2.0000                   2000.0                   2500.0                   45.000                   390.79                   457.68                   609.10                   656.75                   683.49                   690.60                   390.86                   457.66                   609.73                   658.22                   685.37                   692.48                   390.74                   457.43                   609.04                   657.33                   684.54                   691.77                   390.74                   457.42                   609.18                   657.63                   684.99                   692.08                   390.68                   457.39                   609.27                   657.89                   684.72                   691.63                   390.65                   457.45                   609.72                   658.61                   685.89                   693.02                   390.23                   456.92                   609.01                   657.83                   685.35                   692.54                   367.30                   427.89                   562.11                   602.82                   626.45                   632.95                   327.29                   378.28                   490.01                   523.49                   543.85                   549.82                   295.57                   331.60                   402.12                   420.83                   432.10                   435.86
20.000                   3.0000                   2.0000                   2000.0                   2500.0                   50.000                   436.48                   505.04                   658.94                   708.56                   736.38                   743.53                   436.35                   504.74                   659.13                   709.62                   737.83                   744.93                   436.27                   504.58                   658.61                   709.05                   737.48                   744.75                   436.20                   504.45                   658.56                   709.07                   737.49                   744.56                   436.11                   504.38                   658.42                   708.98                   736.79                   743.67                   436.26                   504.76                   660.12                   711.73                   740.25                   747.35                   435.62                   504.00                   658.84                   710.19                   739.04                   746.25                   409.79                   471.88                   609.17                   650.91                   674.77                   681.14                   366.13                   418.39                   532.51                   566.26                   586.68                   592.61                   331.97                   368.55                   440.04                   458.72                   469.98                   473.64
20.000                   3.0000                   2.0000                   2000.0                   2500.0                   55.000                   480.87                   550.55                   705.09                   756.42                   785.32                   792.51                   480.52                   549.92                   704.61                   756.76                   785.97                   793.03                   480.49                   549.86                   704.41                   756.73                   786.37                   793.64                   480.33                   549.61                   704.13                   756.40                   785.78                   792.80                   480.22                   549.48                   703.65                   755.78                   784.50                   791.34                   480.58                   550.24                   706.88                   761.04                   790.76                   797.81                   479.71                   549.25                   704.94                   758.62                   788.79                   795.99                   451.21                   514.54                   654.23                   696.87                   720.87                   727.08                   404.30                   457.63                   573.64                   607.41                   627.69                   633.51                   368.21                   405.20                   477.46                   495.99                   507.13                   510.68
20.000                   3.0000                   2.0000                   2000.0                   2500.0                   60.000                   523.47                   593.90                   754.39                   809.65                   839.80                   846.85                   522.91                   592.97                   753.15                   809.04                   839.43                   846.33                   522.93                   593.01                   753.25                   809.44                   840.32                   847.44                   522.70                   592.65                   752.69                   808.77                   839.28                   846.15                   522.56                   592.46                   751.98                   807.80                   837.71                   844.42                   523.11                   593.55                   756.29                   814.53                   845.47                   852.35                   522.05                   592.37                   753.98                   811.68                   843.11                   850.16                   491.17                   555.42                   698.67                   744.50                   769.71                   775.89                   441.34                   495.66                   613.91                   648.51                   669.03                   674.76                   403.16                   440.74                   514.18                   533.02                   544.31                   547.79
20.000                   3.0000                   2.0000                   2000.0                   2500.0                   65.000                   561.64                   631.90                   811.49                   876.11                   907.95                   914.45                   560.90                   630.75                   809.22                   874.04                   906.02                   912.48                   560.98                   630.88                   809.62                   874.62                   906.82                   913.38                   560.68                   630.43                   808.69                   873.63                   905.65                   912.09                   560.50                   630.20                   807.96                   872.72                   904.50                   910.88                   561.24                   631.48                   812.29                   878.34                   910.57                   917.00                   560.05                   630.25                   810.31                   876.22                   908.75                   915.28                   527.47                   591.86                   741.57                   796.28                   825.31                   831.85                   475.55                   530.68                   652.04                   689.51                   711.20                   716.86                   434.94                   473.53                   549.18                   569.47                   581.52                   585.05
20.000                   3.0000                   2.0000                   2000.0                   2500.0                   70.000                   599.50                   669.52                   869.05                   941.53                   974.45                   980.29                   598.58                   668.16                   865.86                   938.29                   971.27                   977.16                   598.71                   668.39                   866.49                   938.90                   971.87                   977.76                   598.35                   667.86                   865.23                   937.67                   970.65                   976.55                   598.15                   667.59                   864.49                   936.85                   969.86                   975.77                   599.06                   669.05                   868.78                   941.36                   974.33                   980.18                   597.74                   667.77                   867.16                   939.99                   973.12                   979.02                   563.58                   628.04                   785.30                   848.33                   880.65                   887.40                   509.64                   565.50                   689.54                   729.52                   752.30                   757.87                   466.62                   506.22                   583.96                   605.46                   618.14                   621.67
20.000                   3.0000                   2.0000                   2000.0                   2500.0                   75.000                   633.90                   703.35                   923.01                   992.00                   1021.0                   1025.2                   632.86                   701.90                   919.81                   989.05                   1018.3                   1022.6                   633.05                   702.18                   920.57                   989.67                   1018.8                   1023.2                   632.64                   701.61                   919.12                   988.29                   1017.6                   1022.0                   632.42                   701.33                   918.41                   987.57                   1016.9                   1021.3                   633.44                   702.84                   922.42                   991.42                   1020.5                   1024.8                   632.10                   701.75                   923.16                   993.21                   1022.5                   1026.7                   597.15                   661.26                   832.54                   897.92                   929.44                   935.46                   542.00                   597.52                   720.61                   761.57                   785.07                   790.55                   497.23                   537.44                   615.20                   636.53                   648.97                   652.29