% Model:              batchmodel_COIL_N_20_COIL_kr_3_COIL_kh_1.5_FUNZ_freq_10000_FUNZ_I_eff_4000.mph
% Version:            COMSOL 6.0.0.318
% Date:               Feb 9 2022, 03:56
% Table:              Tabella 1 - GRIGLIA_T
% COIL_N                 COIL_kr                  COIL_kh                  FUNZ_freq                FUNZ_I_eff               Time (s)                 Temperatura (degC), Point: (0, 0)Temperatura (degC), Point: (15, 0)Temperatura (degC), Point: (28.051, 0)Temperatura (degC), Point: (29.025, 0)Temperatura (degC), Point: (29.61, 0)Temperatura (degC), Point: (29.99, 0)Temperatura (degC), Point: (0, 62.5)Temperatura (degC), Point: (15, 62.5)Temperatura (degC), Point: (28.051, 62.5)Temperatura (degC), Point: (29.025, 62.5)Temperatura (degC), Point: (29.61, 62.5)Temperatura (degC), Point: (29.99, 62.5)Temperatura (degC), Point: (0, 125)Temperatura (degC), Point: (15, 125)Temperatura (degC), Point: (28.051, 125)Temperatura (degC), Point: (29.025, 125)Temperatura (degC), Point: (29.61, 125)Temperatura (degC), Point: (29.99, 125)Temperatura (degC), Point: (0, 187.5)Temperatura (degC), Point: (15, 187.5)Temperatura (degC), Point: (28.051, 187.5)Temperatura (degC), Point: (29.025, 187.5)Temperatura (degC), Point: (29.61, 187.5)Temperatura (degC), Point: (29.99, 187.5)Temperatura (degC), Point: (0, 250)Temperatura (degC), Point: (15, 250)Temperatura (degC), Point: (28.051, 250)Temperatura (degC), Point: (29.025, 250)Temperatura (degC), Point: (29.61, 250)Temperatura (degC), Point: (29.99, 250)Temperatura (degC), Point: (0, 312.5)Temperatura (degC), Point: (15, 312.5)Temperatura (degC), Point: (28.051, 312.5)Temperatura (degC), Point: (29.025, 312.5)Temperatura (degC), Point: (29.61, 312.5)Temperatura (degC), Point: (29.99, 312.5)Temperatura (degC), Point: (0, 375)Temperatura (degC), Point: (15, 375)Temperatura (degC), Point: (28.051, 375)Temperatura (degC), Point: (29.025, 375)Temperatura (degC), Point: (29.61, 375)Temperatura (degC), Point: (29.99, 375)Temperatura (degC), Point: (0, 437.5)Temperatura (degC), Point: (15, 437.5)Temperatura (degC), Point: (28.051, 437.5)Temperatura (degC), Point: (29.025, 437.5)Temperatura (degC), Point: (29.61, 437.5)Temperatura (degC), Point: (29.99, 437.5)Temperatura (degC), Point: (0, 468.75)Temperatura (degC), Point: (15, 468.75)Temperatura (degC), Point: (28.051, 468.75)Temperatura (degC), Point: (29.025, 468.75)Temperatura (degC), Point: (29.61, 468.75)Temperatura (degC), Point: (29.99, 468.75)Temperatura (degC), Point: (0, 492.19)Temperatura (degC), Point: (15, 492.19)Temperatura (degC), Point: (28.051, 492.19)Temperatura (degC), Point: (29.025, 492.19)Temperatura (degC), Point: (29.61, 492.19)Temperatura (degC), Point: (29.99, 492.19)
20.000                   3.0000                   1.5000                   10000                    4000.0                   0.0000                   20.000                   20.000                   20.000                   20.001                   20.322                   21.001                   20.000                   20.000                   20.000                   20.001                   20.323                   21.001                   20.000                   20.000                   20.000                   20.001                   20.323                   21.002                   20.000                   20.000                   20.000                   20.001                   20.323                   21.001                   20.000                   20.000                   20.000                   20.001                   20.322                   21.001                   20.000                   20.000                   20.000                   20.001                   20.322                   21.001                   20.000                   20.000                   20.000                   20.001                   20.323                   21.001                   20.000                   20.000                   20.000                   20.001                   20.317                   20.990                   20.000                   20.000                   20.000                   20.001                   20.296                   20.951                   20.000                   20.000                   20.000                   20.001                   20.270                   20.899
20.000                   3.0000                   1.5000                   10000                    4000.0                   5.0000                   38.854                   118.63                   693.93                   822.84                   895.95                   914.20                   38.773                   118.86                   693.76                   821.59                   893.43                   911.53                   38.614                   117.72                   689.20                   819.91                   893.12                   911.54                   38.700                   118.23                   686.71                   812.07                   882.76                   900.62                   38.602                   117.84                   685.31                   811.19                   885.44                   904.27                   38.788                   118.73                   684.66                   803.58                   873.62                   891.86                   38.788                   118.82                   690.85                   820.32                   893.85                   912.01                   38.309                   116.63                   675.35                   795.27                   863.82                   881.33                   37.283                   110.36                   622.29                   724.71                   782.47                   797.60                   51.641                   124.96                   559.07                   635.18                   676.55                   688.01
20.000                   3.0000                   1.5000                   10000                    4000.0                   10.000                   154.89                   311.31                   1163.2                   1213.8                   1225.3                   1225.3                   154.70                   308.30                   928.84                   994.44                   1019.0                   1023.4                   154.38                   308.38                   933.39                   999.10                   1023.1                   1027.3                   154.26                   307.73                   928.73                   993.64                   1017.9                   1022.4                   154.19                   310.07                   1167.2                   1218.2                   1229.8                   1229.9                   154.56                   309.20                   1087.0                   1149.8                   1165.4                   1166.5                   154.85                   309.96                   1060.2                   1123.8                   1139.9                   1141.2                   152.64                   305.73                   983.43                   1052.7                   1074.2                   1077.1                   146.74                   290.74                   921.19                   1007.1                   1039.3                   1045.3                   160.72                   297.27                   799.60                   882.70                   923.10                   932.52
20.000                   3.0000                   1.5000                   10000                    4000.0                   15.000                   294.61                   463.43                   1169.5                   1194.6                   1199.5                   1198.4                   294.07                   457.17                   1045.0                   1083.1                   1093.3                   1093.8                   294.02                   457.88                   1049.2                   1086.3                   1096.1                   1096.4                   293.76                   457.48                   1043.3                   1081.2                   1091.4                   1092.0                   293.81                   462.69                   1175.0                   1200.0                   1204.8                   1203.7                   293.85                   461.09                   1148.3                   1176.6                   1182.6                   1181.8                   294.49                   460.55                   1120.5                   1151.4                   1158.4                   1157.9                   291.73                   455.44                   1058.2                   1096.6                   1106.9                   1107.4                   282.61                   441.78                   1073.0                   1111.2                   1120.3                   1120.4                   287.87                   433.61                   948.01                   1009.1                   1032.7                   1037.1
20.000                   3.0000                   1.5000                   10000                    4000.0                   20.000                   412.63                   572.58                   1138.2                   1155.4                   1158.4                   1157.1                   412.00                   567.45                   1106.4                   1127.3                   1131.5                   1130.6                   412.02                   568.07                   1108.4                   1128.9                   1133.1                   1132.1                   411.96                   568.46                   1107.9                   1128.4                   1132.5                   1131.5                   412.00                   572.51                   1141.7                   1158.6                   1161.5                   1160.2                   411.93                   571.64                   1136.4                   1154.2                   1157.4                   1156.1                   412.64                   570.70                   1124.0                   1142.9                   1146.5                   1145.4                   409.86                   565.60                   1103.7                   1125.4                   1129.9                   1129.0                   400.76                   556.46                   1109.0                   1129.7                   1133.9                   1133.0                   399.46                   545.82                   1110.5                   1138.1                   1144.2                   1143.6
20.000                   3.0000                   1.5000                   10000                    4000.0                   25.000                   506.28                   653.19                   1140.0                   1152.7                   1154.5                   1153.1                   505.77                   650.30                   1133.0                   1146.5                   1148.6                   1147.2                   505.75                   650.71                   1133.9                   1147.3                   1149.3                   1147.9                   505.89                   651.40                   1134.3                   1147.6                   1149.6                   1148.2                   505.87                   653.37                   1141.1                   1153.7                   1155.5                   1154.0                   505.81                   653.09                   1140.0                   1152.8                   1154.6                   1153.1                   506.51                   652.64                   1136.7                   1149.8                   1151.7                   1150.3                   503.76                   648.20                   1129.6                   1143.5                   1145.7                   1144.4                   495.60                   640.83                   1125.1                   1139.3                   1141.6                   1140.3                   493.06                   638.65                   1165.6                   1179.0                   1180.8                   1179.2
20.000                   3.0000                   1.5000                   10000                    4000.0                   30.000                   580.86                   716.31                   1153.8                   1163.2                   1164.1                   1162.4                   580.50                   715.03                   1151.9                   1161.5                   1162.4                   1160.7                   580.44                   715.17                   1152.2                   1161.8                   1162.8                   1161.1                   580.64                   715.91                   1152.7                   1162.3                   1163.1                   1161.5                   580.59                   716.54                   1154.1                   1163.5                   1164.3                   1162.7                   580.54                   716.59                   1153.9                   1163.3                   1164.2                   1162.5                   581.19                   716.46                   1153.1                   1162.6                   1163.5                   1161.8                   578.52                   712.53                   1148.6                   1158.4                   1159.4                   1157.8                   571.33                   705.30                   1139.9                   1150.2                   1151.4                   1149.8                   571.35                   715.43                   1197.9                   1206.6                   1207.0                   1205.0
20.000                   3.0000                   1.5000                   10000                    4000.0                   35.000                   642.29                   774.09                   1170.4                   1177.5                   1177.6                   1175.7                   641.96                   773.02                   1170.0                   1177.1                   1177.3                   1175.4                   641.87                   773.00                   1170.1                   1177.3                   1177.4                   1175.6                   642.07                   773.76                   1170.5                   1177.6                   1177.7                   1175.9                   642.02                   773.72                   1170.4                   1177.5                   1177.6                   1175.8                   641.99                   773.84                   1170.4                   1177.5                   1177.6                   1175.8                   642.60                   774.07                   1170.4                   1177.5                   1177.7                   1175.8                   640.13                   770.09                   1166.3                   1173.5                   1173.7                   1171.9                   633.96                   761.57                   1155.4                   1163.0                   1163.3                   1161.5                   637.79                   788.84                   1228.1                   1234.2                   1233.8                   1231.6
20.000                   3.0000                   1.5000                   10000                    4000.0                   40.000                   685.99                   834.63                   1190.4                   1196.1                   1195.8                   1193.7                   685.54                   833.48                   1190.3                   1196.0                   1195.7                   1193.6                   685.45                   833.43                   1190.4                   1196.1                   1195.8                   1193.7                   685.62                   834.04                   1190.6                   1196.3                   1196.0                   1193.9                   685.60                   833.90                   1190.3                   1196.0                   1195.7                   1193.6                   685.58                   833.93                   1190.3                   1196.0                   1195.7                   1193.6                   686.12                   834.52                   1190.5                   1196.2                   1195.9                   1193.9                   683.95                   829.69                   1185.6                   1191.4                   1191.1                   1189.0                   679.05                   819.78                   1173.6                   1179.5                   1179.3                   1177.3                   686.34                   867.55                   1260.0                   1264.8                   1263.8                   1261.4
20.000                   3.0000                   1.5000                   10000                    4000.0                   45.000                   723.24                   896.40                   1211.7                   1216.2                   1215.5                   1213.3                   722.63                   895.45                   1211.6                   1216.2                   1215.5                   1213.3                   722.54                   895.36                   1211.7                   1216.3                   1215.6                   1213.4                   722.68                   895.79                   1211.8                   1216.4                   1215.7                   1213.5                   722.68                   895.70                   1211.6                   1216.2                   1215.4                   1213.2                   722.66                   895.62                   1211.5                   1216.1                   1215.4                   1213.2                   723.13                   896.50                   1211.8                   1216.4                   1215.7                   1213.5                   721.29                   890.53                   1205.7                   1210.3                   1209.6                   1207.5                   717.78                   879.71                   1192.9                   1197.5                   1196.8                   1194.6                   728.23                   947.96                   1292.7                   1296.4                   1295.1                   1292.5
