% Model:              batchmodel_COIL_N_20_COIL_kr_2.25_COIL_kh_2_FUNZ_freq_10000_FUNZ_I_eff_2500.mph
% Version:            COMSOL 6.0.0.318
% Date:               Feb 9 2022, 03:13
% Table:              Tabella 1 - GRIGLIA_T
% COIL_N                 COIL_kr                  COIL_kh                  FUNZ_freq                FUNZ_I_eff               Time (s)                 Temperatura (degC), Point: (0, 0)Temperatura (degC), Point: (15, 0)Temperatura (degC), Point: (28.051, 0)Temperatura (degC), Point: (29.025, 0)Temperatura (degC), Point: (29.61, 0)Temperatura (degC), Point: (29.99, 0)Temperatura (degC), Point: (0, 62.5)Temperatura (degC), Point: (15, 62.5)Temperatura (degC), Point: (28.051, 62.5)Temperatura (degC), Point: (29.025, 62.5)Temperatura (degC), Point: (29.61, 62.5)Temperatura (degC), Point: (29.99, 62.5)Temperatura (degC), Point: (0, 125)Temperatura (degC), Point: (15, 125)Temperatura (degC), Point: (28.051, 125)Temperatura (degC), Point: (29.025, 125)Temperatura (degC), Point: (29.61, 125)Temperatura (degC), Point: (29.99, 125)Temperatura (degC), Point: (0, 187.5)Temperatura (degC), Point: (15, 187.5)Temperatura (degC), Point: (28.051, 187.5)Temperatura (degC), Point: (29.025, 187.5)Temperatura (degC), Point: (29.61, 187.5)Temperatura (degC), Point: (29.99, 187.5)Temperatura (degC), Point: (0, 250)Temperatura (degC), Point: (15, 250)Temperatura (degC), Point: (28.051, 250)Temperatura (degC), Point: (29.025, 250)Temperatura (degC), Point: (29.61, 250)Temperatura (degC), Point: (29.99, 250)Temperatura (degC), Point: (0, 312.5)Temperatura (degC), Point: (15, 312.5)Temperatura (degC), Point: (28.051, 312.5)Temperatura (degC), Point: (29.025, 312.5)Temperatura (degC), Point: (29.61, 312.5)Temperatura (degC), Point: (29.99, 312.5)Temperatura (degC), Point: (0, 375)Temperatura (degC), Point: (15, 375)Temperatura (degC), Point: (28.051, 375)Temperatura (degC), Point: (29.025, 375)Temperatura (degC), Point: (29.61, 375)Temperatura (degC), Point: (29.99, 375)Temperatura (degC), Point: (0, 437.5)Temperatura (degC), Point: (15, 437.5)Temperatura (degC), Point: (28.051, 437.5)Temperatura (degC), Point: (29.025, 437.5)Temperatura (degC), Point: (29.61, 437.5)Temperatura (degC), Point: (29.99, 437.5)Temperatura (degC), Point: (0, 468.75)Temperatura (degC), Point: (15, 468.75)Temperatura (degC), Point: (28.051, 468.75)Temperatura (degC), Point: (29.025, 468.75)Temperatura (degC), Point: (29.61, 468.75)Temperatura (degC), Point: (29.99, 468.75)Temperatura (degC), Point: (0, 492.19)Temperatura (degC), Point: (15, 492.19)Temperatura (degC), Point: (28.051, 492.19)Temperatura (degC), Point: (29.025, 492.19)Temperatura (degC), Point: (29.61, 492.19)Temperatura (degC), Point: (29.99, 492.19)
20.000                   2.2500                   2.0000                   10000                    2500.0                   0.0000                   20.000                   20.000                   20.000                   20.000                   20.137                   20.596                   20.000                   20.000                   20.000                   20.000                   20.138                   20.597                   20.000                   20.000                   20.000                   20.000                   20.138                   20.598                   20.000                   20.000                   20.000                   20.000                   20.138                   20.597                   20.000                   20.000                   20.000                   20.000                   20.137                   20.596                   20.000                   20.000                   20.000                   20.000                   20.137                   20.597                   20.000                   20.000                   20.000                   20.000                   20.138                   20.598                   20.000                   20.000                   20.000                   20.000                   20.138                   20.597                   20.000                   20.000                   20.000                   20.000                   20.133                   20.584                   20.000                   20.000                   20.000                   20.000                   20.108                   20.516
20.000                   2.2500                   2.0000                   10000                    2500.0                   5.0000                   29.266                   67.170                   301.39                   338.20                   360.66                   367.86                   29.304                   67.837                   304.35                   341.21                   363.55                   370.73                   29.241                   67.519                   302.72                   339.49                   361.80                   368.96                   29.205                   67.274                   301.76                   338.42                   360.64                   367.82                   29.203                   67.220                   300.92                   337.54                   359.81                   366.99                   29.256                   67.537                   302.41                   338.89                   361.08                   368.28                   29.226                   67.515                   303.40                   340.24                   362.52                   369.61                   29.121                   66.943                   300.95                   337.61                   359.97                   367.04                   29.004                   65.729                   289.05                   323.59                   344.74                   351.67                   38.541                   77.045                   272.31                   299.07                   315.36                   320.97
20.000                   2.2500                   2.0000                   10000                    2500.0                   10.000                   93.769                   181.69                   543.19                   597.69                   628.47                   637.01                   93.750                   181.20                   539.24                   593.91                   624.53                   633.11                   93.505                   180.89                   538.71                   592.82                   623.03                   631.59                   93.374                   180.71                   539.29                   593.89                   624.80                   633.45                   93.466                   181.01                   540.62                   595.14                   626.07                   634.75                   93.810                   181.68                   542.24                   597.20                   627.98                   636.56                   93.493                   180.98                   539.50                   594.06                   624.74                   633.26                   93.021                   180.20                   537.84                   592.21                   622.85                   631.33                   91.283                   174.48                   509.52                   559.48                   587.81                   595.80                   100.88                   177.90                   446.08                   481.13                   501.55                   507.62
20.000                   2.2500                   2.0000                   10000                    2500.0                   15.000                   191.93                   307.10                   747.61                   821.80                   862.15                   872.27                   191.40                   305.83                   738.71                   809.51                   847.61                   857.46                   191.13                   305.48                   739.51                   811.08                   849.13                   859.16                   191.08                   305.83                   745.53                   819.58                   858.87                   868.82                   191.31                   306.25                   746.84                   821.12                   861.44                   871.61                   191.79                   306.70                   744.25                   817.37                   856.36                   866.20                   191.13                   305.48                   735.73                   805.49                   843.00                   852.70                   190.10                   304.04                   734.62                   805.07                   842.28                   851.96                   185.23                   293.61                   698.00                   760.29                   794.87                   803.84                   197.99                   293.57                   613.98                   656.11                   680.32                   687.00
20.000                   2.2500                   2.0000                   10000                    2500.0                   20.000                   297.77                   424.96                   958.49                   1040.1                   1069.2                   1074.0                   296.78                   422.99                   920.88                   992.59                   1023.9                   1030.4                   296.45                   422.54                   932.41                   1009.7                   1041.8                   1048.1                   296.77                   423.85                   935.32                   1008.5                   1038.7                   1044.5                   297.03                   424.13                   935.63                   1009.5                   1040.2                   1046.1                   297.33                   424.06                   930.35                   1002.5                   1032.9                   1038.9                   296.35                   422.16                   925.81                   1002.3                   1034.7                   1041.2                   294.76                   420.48                   934.83                   1013.7                   1045.3                   1051.3                   286.78                   406.24                   868.92                   945.43                   980.89                   988.82                   297.31                   401.62                   728.17                   772.00                   796.73                   803.15
20.000                   2.2500                   2.0000                   10000                    2500.0                   25.000                   395.66                   526.62                   1105.9                   1138.9                   1146.4                   1146.0                   394.16                   521.29                   941.96                   981.32                   999.35                   1003.1                   393.77                   522.01                   1073.1                   1114.6                   1124.8                   1125.1                   394.66                   523.60                   947.53                   981.45                   996.04                   998.95                   394.74                   522.70                   945.59                   984.70                   1002.7                   1006.4                   394.86                   522.66                   933.39                   968.80                   985.08                   988.55                   393.50                   520.69                   955.45                   994.12                   1010.7                   1014.0                   391.85                   521.07                   1016.9                   1058.2                   1070.9                   1072.2                   381.12                   502.95                   1026.8                   1084.6                   1101.0                   1102.7                   380.73                   486.45                   796.84                   838.62                   860.77                   866.28
20.000                   2.2500                   2.0000                   10000                    2500.0                   30.000                   478.48                   606.26                   1116.6                   1137.3                   1141.4                   1140.5                   476.18                   596.93                   988.96                   1020.3                   1032.6                   1034.5                   475.99                   599.84                   1098.5                   1124.0                   1129.7                   1129.1                   477.36                   600.67                   985.00                   1010.8                   1020.8                   1022.3                   476.92                   597.74                   976.84                   1007.0                   1019.9                   1022.2                   477.14                   598.15                   964.20                   991.56                   1003.6                   1005.9                   475.56                   596.98                   1000.3                   1031.1                   1042.1                   1043.5                   474.37                   599.41                   1063.1                   1091.4                   1098.8                   1098.8                   461.73                   582.09                   1109.7                   1140.1                   1146.6                   1146.0                   453.48                   554.26                   850.97                   888.87                   908.59                   913.30
20.000                   2.2500                   2.0000                   10000                    2500.0                   35.000                   548.61                   668.65                   1113.5                   1128.8                   1131.5                   1130.3                   545.65                   657.49                   1036.7                   1062.0                   1069.7                   1069.9                   545.79                   661.61                   1099.0                   1117.8                   1121.8                   1120.9                   547.46                   662.14                   1033.6                   1055.0                   1061.3                   1061.3                   546.42                   657.60                   1015.5                   1040.7                   1049.4                   1050.2                   546.85                   658.33                   1001.4                   1024.0                   1032.6                   1033.6                   545.21                   657.94                   1039.7                   1064.0                   1071.2                   1071.3                   544.38                   661.04                   1086.6                   1106.8                   1111.3                   1110.6                   531.03                   646.99                   1114.5                   1133.4                   1137.1                   1136.0                   516.45                   610.42                   897.36                   931.51                   949.00                   952.99
20.000                   2.2500                   2.0000                   10000                    2500.0                   40.000                   607.36                   717.83                   1107.5                   1119.6                   1121.5                   1120.2                   604.09                   706.72                   1066.2                   1084.7                   1089.3                   1088.7                   604.52                   710.81                   1090.4                   1105.2                   1108.1                   1107.1                   606.30                   711.94                   1069.5                   1085.2                   1088.7                   1087.8                   604.83                   706.33                   1047.8                   1067.4                   1072.9                   1072.6                   605.41                   707.32                   1039.0                   1057.5                   1063.0                   1062.8                   603.87                   707.27                   1063.7                   1081.7                   1086.1                   1085.5                   603.21                   710.20                   1091.3                   1106.5                   1109.6                   1108.5                   590.42                   699.58                   1106.7                   1120.6                   1123.1                   1121.9                   571.23                   657.61                   932.35                   961.34                   976.07                   979.30
20.000                   2.2500                   2.0000                   10000                    2500.0                   45.000                   656.88                   760.48                   1102.7                   1112.4                   1113.7                   1112.3                   653.62                   749.06                   1080.9                   1094.1                   1096.7                   1095.7                   654.24                   753.05                   1088.5                   1100.1                   1102.1                   1100.9                   656.01                   755.20                   1087.3                   1098.7                   1100.6                   1099.3                   654.30                   748.41                   1069.9                   1084.0                   1087.1                   1086.2                   654.96                   749.82                   1067.6                   1081.2                   1084.2                   1083.3                   653.57                   749.64                   1078.7                   1091.6                   1094.2                   1093.2                   652.99                   752.39                   1092.3                   1103.9                   1105.9                   1104.7                   641.44                   744.03                   1103.1                   1113.8                   1115.4                   1114.0                   619.34                   698.32                   958.83                   982.27                   993.96                   996.35
20.000                   2.2500                   2.0000                   10000                    2500.0                   50.000                   696.49                   800.48                   1101.3                   1109.2                   1110.0                   1108.5                   693.51                   789.39                   1090.2                   1099.7                   1101.1                   1099.8                   694.20                   793.08                   1092.2                   1101.2                   1102.4                   1101.0                   695.81                   796.32                   1096.9                   1105.3                   1106.3                   1104.8                   694.09                   788.87                   1085.8                   1095.6                   1097.1                   1095.9                   694.75                   790.70                   1087.2                   1096.8                   1098.2                   1096.9                   693.57                   790.10                   1089.7                   1099.1                   1100.4                   1099.1                   693.06                   792.24                   1094.7                   1103.6                   1104.8                   1103.4                   683.35                   784.91                   1102.9                   1111.3                   1112.3                   1110.8                   660.39                   733.55                   985.77                   1004.4                   1013.0                   1014.4
20.000                   2.2500                   2.0000                   10000                    2500.0                   55.000                   726.47                   839.18                   1104.1                   1110.5                   1110.8                   1109.2                   723.90                   829.61                   1098.6                   1105.7                   1106.3                   1104.8                   724.57                   832.72                   1099.8                   1106.7                   1107.2                   1105.7                   725.95                   836.79                   1103.4                   1109.9                   1110.3                   1108.7                   724.37                   829.59                   1097.5                   1104.6                   1105.2                   1103.7                   724.99                   831.69                   1099.2                   1106.1                   1106.7                   1105.2                   724.04                   830.51                   1099.2                   1106.3                   1106.8                   1105.3                   723.60                   831.53                   1100.1                   1107.1                   1107.6                   1106.1                   715.95                   824.13                   1105.3                   1112.0                   1112.4                   1110.9                   694.01                   765.30                   1017.9                   1032.9                   1038.3                   1038.5
20.000                   2.2500                   2.0000                   10000                    2500.0                   60.000                   750.00                   875.71                   1109.5                   1114.5                   1114.4                   1112.7                   747.48                   868.84                   1107.0                   1112.4                   1112.3                   1110.7                   748.19                   871.22                   1108.1                   1113.3                   1113.2                   1111.5                   749.58                   875.12                   1110.2                   1115.1                   1115.0                   1113.3                   747.95                   869.37                   1107.0                   1112.3                   1112.3                   1110.6                   748.58                   871.35                   1108.3                   1113.4                   1113.4                   1111.7                   747.69                   869.78                   1107.9                   1113.1                   1113.1                   1111.4                   747.23                   869.63                   1107.4                   1112.6                   1112.6                   1111.0                   740.47                   861.54                   1108.8                   1114.2                   1114.2                   1112.5                   719.83                   800.62                   1058.6                   1069.8                   1072.4                   1071.6
20.000                   2.2500                   2.0000                   10000                    2500.0                   65.000                   775.16                   909.98                   1116.2                   1119.9                   1119.4                   1117.6                   772.52                   905.62                   1115.2                   1119.1                   1118.6                   1116.9                   773.42                   907.40                   1116.3                   1120.1                   1119.6                   1117.8                   775.09                   910.63                   1117.1                   1120.8                   1120.3                   1118.5                   773.16                   906.52                   1115.5                   1119.3                   1118.8                   1117.1                   773.91                   908.15                   1116.3                   1120.1                   1119.5                   1117.7                   772.84                   906.50                   1116.0                   1119.8                   1119.3                   1117.5                   772.13                   905.52                   1115.2                   1119.1                   1118.6                   1116.8                   763.99                   896.11                   1113.5                   1117.6                   1117.2                   1115.5                   741.28                   839.70                   1091.5                   1099.2                   1099.9                   1098.4
20.000                   2.2500                   2.0000                   10000                    2500.0                   70.000                   805.72                   942.11                   1123.6                   1126.3                   1125.4                   1123.5                   802.91                   939.64                   1123.3                   1126.0                   1125.1                   1123.3                   804.10                   941.01                   1124.2                   1126.8                   1125.9                   1124.0                   806.22                   943.28                   1124.5                   1127.1                   1126.2                   1124.3                   803.86                   940.65                   1123.5                   1126.2                   1125.3                   1123.4                   804.79                   941.81                   1124.0                   1126.7                   1125.7                   1123.8                   803.38                   940.37                   1123.9                   1126.6                   1125.7                   1123.8                   802.17                   938.98                   1123.2                   1125.9                   1125.0                   1123.2                   790.46                   927.81                   1118.9                   1122.1                   1121.3                   1119.5                   761.59                   881.89                   1114.3                   1118.9                   1118.5                   1116.7
20.000                   2.2500                   2.0000                   10000                    2500.0                   75.000                   846.34                   972.47                   1131.3                   1133.1                   1131.8                   1129.8                   843.77                   970.99                   1131.2                   1133.0                   1131.8                   1129.8                   845.10                   972.09                   1131.9                   1133.7                   1132.4                   1130.4                   847.39                   973.63                   1132.1                   1133.8                   1132.5                   1130.5                   844.96                   971.90                   1131.3                   1133.1                   1131.8                   1129.8                   845.94                   972.68                   1131.7                   1133.4                   1132.2                   1130.2                   844.30                   971.56                   1131.6                   1133.4                   1132.2                   1130.2                   842.46                   970.00                   1131.0                   1132.8                   1131.6                   1129.6                   826.20                   957.15                   1125.0                   1127.2                   1126.2                   1124.3                   787.87                   923.88                   1130.1                   1132.8                   1131.8                   1129.8