% Model:              batchmodel_COIL_N_20_COIL_kr_2.25_COIL_kh_1_FUNZ_freq_2000_FUNZ_I_eff_4000.mph
% Version:            COMSOL 6.0.0.318
% Date:               Feb 9 2022, 01:50
% Table:              Tabella 1 - GRIGLIA_T
% COIL_N                 COIL_kr                  COIL_kh                  FUNZ_freq                FUNZ_I_eff               Time (s)                 Temperatura (degC), Point: (0, 0)Temperatura (degC), Point: (15, 0)Temperatura (degC), Point: (25.641, 0)Temperatura (degC), Point: (27.821, 0)Temperatura (degC), Point: (29.128, 0)Temperatura (degC), Point: (29.99, 0)Temperatura (degC), Point: (0, 62.5)Temperatura (degC), Point: (15, 62.5)Temperatura (degC), Point: (25.641, 62.5)Temperatura (degC), Point: (27.821, 62.5)Temperatura (degC), Point: (29.128, 62.5)Temperatura (degC), Point: (29.99, 62.5)Temperatura (degC), Point: (0, 125)Temperatura (degC), Point: (15, 125)Temperatura (degC), Point: (25.641, 125)Temperatura (degC), Point: (27.821, 125)Temperatura (degC), Point: (29.128, 125)Temperatura (degC), Point: (29.99, 125)Temperatura (degC), Point: (0, 187.5)Temperatura (degC), Point: (15, 187.5)Temperatura (degC), Point: (25.641, 187.5)Temperatura (degC), Point: (27.821, 187.5)Temperatura (degC), Point: (29.128, 187.5)Temperatura (degC), Point: (29.99, 187.5)Temperatura (degC), Point: (0, 250)Temperatura (degC), Point: (15, 250)Temperatura (degC), Point: (25.641, 250)Temperatura (degC), Point: (27.821, 250)Temperatura (degC), Point: (29.128, 250)Temperatura (degC), Point: (29.99, 250)Temperatura (degC), Point: (0, 312.5)Temperatura (degC), Point: (15, 312.5)Temperatura (degC), Point: (25.641, 312.5)Temperatura (degC), Point: (27.821, 312.5)Temperatura (degC), Point: (29.128, 312.5)Temperatura (degC), Point: (29.99, 312.5)Temperatura (degC), Point: (0, 375)Temperatura (degC), Point: (15, 375)Temperatura (degC), Point: (25.641, 375)Temperatura (degC), Point: (27.821, 375)Temperatura (degC), Point: (29.128, 375)Temperatura (degC), Point: (29.99, 375)Temperatura (degC), Point: (0, 437.5)Temperatura (degC), Point: (15, 437.5)Temperatura (degC), Point: (25.641, 437.5)Temperatura (degC), Point: (27.821, 437.5)Temperatura (degC), Point: (29.128, 437.5)Temperatura (degC), Point: (29.99, 437.5)Temperatura (degC), Point: (0, 468.75)Temperatura (degC), Point: (15, 468.75)Temperatura (degC), Point: (25.641, 468.75)Temperatura (degC), Point: (27.821, 468.75)Temperatura (degC), Point: (29.128, 468.75)Temperatura (degC), Point: (29.99, 468.75)Temperatura (degC), Point: (0, 492.19)Temperatura (degC), Point: (15, 492.19)Temperatura (degC), Point: (25.641, 492.19)Temperatura (degC), Point: (27.821, 492.19)Temperatura (degC), Point: (29.128, 492.19)Temperatura (degC), Point: (29.99, 492.19)
20.000                   2.2500                   1.0000                   2000.0                   4000.0                   0.0000                   20.000                   20.000                   20.000                   20.000                   20.063                   20.224                   20.000                   20.000                   20.000                   20.000                   20.064                   20.225                   20.000                   20.000                   20.000                   20.000                   20.065                   20.228                   20.000                   20.000                   20.000                   20.000                   20.064                   20.227                   20.000                   20.000                   20.000                   20.000                   20.063                   20.225                   20.000                   20.000                   20.000                   20.000                   20.063                   20.224                   20.000                   20.000                   20.000                   20.000                   20.064                   20.226                   20.000                   20.000                   20.000                   20.000                   20.065                   20.228                   20.000                   20.000                   20.000                   20.000                   20.060                   20.219                   20.000                   20.000                   20.000                   20.000                   20.045                   20.184
20.000                   2.2500                   1.0000                   2000.0                   4000.0                   5.0000                   28.487                   61.030                   197.11                   248.11                   280.83                   291.19                   28.587                   61.446                   200.04                   252.03                   285.13                   295.47                   28.542                   61.016                   196.10                   249.44                   283.70                   294.46                   28.490                   60.924                   197.66                   251.39                   285.55                   296.15                   28.353                   60.105                   192.30                   244.01                   276.81                   287.13                   28.401                   60.489                   194.67                   246.37                   279.32                   289.78                   28.566                   61.255                   197.68                   250.43                   283.87                   294.25                   28.392                   60.375                   193.39                   245.94                   279.57                   289.78                   27.811                   57.759                   183.77                   233.40                   265.03                   274.82                   28.891                   55.230                   149.93                   184.69                   207.00                   214.60
20.000                   2.2500                   1.0000                   2000.0                   4000.0                   10.000                   79.524                   156.66                   364.03                   438.48                   480.72                   492.45                   80.016                   157.90                   367.05                   441.69                   484.01                   495.76                   79.352                   156.18                   364.00                   438.90                   481.45                   493.27                   79.440                   156.94                   367.13                   442.59                   485.26                   497.08                   78.582                   154.67                   361.06                   435.50                   477.85                   489.63                   79.175                   156.24                   364.83                   439.76                   482.17                   493.93                   79.800                   157.46                   367.39                   442.69                   485.26                   497.05                   78.417                   154.27                   359.05                   432.54                   474.43                   486.11                   74.517                   145.25                   332.84                   398.53                   436.78                   447.70                   73.170                   132.34                   271.05                   315.45                   342.60                   351.03
20.000                   2.2500                   1.0000                   2000.0                   4000.0                   15.000                   168.16                   268.74                   527.62                   621.32                   670.95                   683.86                   168.90                   269.35                   526.30                   622.31                   673.07                   685.87                   167.57                   268.04                   526.62                   617.82                   668.87                   682.29                   168.19                   269.37                   529.54                   622.87                   676.38                   690.27                   166.56                   266.73                   523.01                   612.80                   662.75                   675.83                   167.85                   268.55                   525.04                   616.78                   664.88                   677.86                   168.55                   268.95                   524.53                   614.62                   663.65                   676.68                   165.38                   264.66                   521.27                   612.86                   664.48                   678.00                   155.44                   246.10                   471.86                   549.04                   592.87                   605.16                   142.95                   215.07                   374.15                   421.27                   450.30                   459.67
20.000                   2.2500                   1.0000                   2000.0                   4000.0                   20.000                   265.44                   378.39                   665.09                   769.32                   827.70                   841.71                   265.80                   378.61                   666.29                   770.93                   829.81                   843.95                   264.59                   377.49                   665.64                   770.83                   829.65                   843.75                   265.59                   379.20                   669.72                   776.85                   836.63                   850.82                   263.71                   376.30                   662.67                   766.69                   824.70                   838.69                   264.95                   377.56                   664.04                   768.31                   826.86                   840.94                   265.09                   377.03                   661.69                   765.26                   823.35                   837.40                   260.88                   372.41                   656.10                   757.45                   813.25                   826.89                   243.72                   344.73                   598.81                   687.37                   733.33                   744.71                   222.31                   303.39                   483.97                   542.37                   575.18                   584.10
20.000                   2.2500                   1.0000                   2000.0                   4000.0                   25.000                   357.06                   476.00                   799.73                   934.17                   992.83                   1004.0                   357.13                   476.19                   802.72                   938.33                   997.15                   1008.3                   356.10                   475.32                   803.94                   940.70                   999.75                   1010.9                   357.29                   477.16                   808.57                   945.87                   1004.6                   1015.6                   355.35                   474.20                   798.42                   933.39                   992.31                   1003.6                   356.27                   475.06                   799.68                   934.82                   993.71                   1004.9                   355.96                   474.36                   798.90                   934.35                   993.51                   1004.8                   350.90                   468.49                   787.29                   920.99                   980.56                   992.20                   327.69                   434.01                   697.75                   796.85                   849.17                   861.21                   300.55                   387.06                   577.90                   637.59                   670.02                   678.37
20.000                   2.2500                   1.0000                   2000.0                   4000.0                   30.000                   439.84                   559.25                   868.89                   969.25                   1009.8                   1016.6                   440.20                   561.76                   895.46                   1001.7                   1040.8                   1046.5                   440.06                   566.58                   997.48                   1106.7                   1132.9                   1133.7                   441.23                   567.42                   983.44                   1094.4                   1122.0                   1123.2                   438.50                   558.90                   876.76                   978.76                   1019.0                   1025.5                   439.13                   559.31                   875.39                   976.76                   1017.0                   1023.6                   439.15                   562.47                   937.54                   1053.4                   1087.6                   1090.7                   433.63                   557.97                   965.83                   1083.9                   1114.9                   1116.9                   404.49                   510.97                   769.27                   867.87                   914.87                   924.52                   373.41                   460.04                   640.26                   692.59                   720.49                   727.37
20.000                   2.2500                   1.0000                   2000.0                   4000.0                   35.000                   512.88                   625.41                   890.40                   958.71                   986.90                   991.34                   514.51                   633.41                   953.15                   1028.8                   1052.5                   1054.3                   516.71                   650.14                   1107.3                   1165.1                   1175.5                   1172.9                   517.54                   648.62                   1086.2                   1147.2                   1158.8                   1156.6                   512.43                   628.20                   915.16                   985.46                   1012.4                   1016.0                   512.81                   627.94                   908.88                   977.83                   1004.8                   1008.6                   514.45                   639.98                   1037.2                   1108.5                   1124.2                   1123.2                   509.43                   641.18                   1094.4                   1157.9                   1170.1                   1168.0                   472.06                   574.72                   823.94                   912.78                   952.77                   960.37                   438.09                   520.97                   684.15                   729.83                   754.63                   760.59
20.000                   2.2500                   1.0000                   2000.0                   4000.0                   40.000                   576.92                   678.76                   910.28                   961.38                   982.73                   985.72                   580.59                   693.51                   1000.1                   1054.6                   1068.8                   1068.5                   586.18                   724.05                   1152.2                   1184.9                   1188.6                   1184.7                   586.39                   719.58                   1131.3                   1166.7                   1171.3                   1167.8                   577.84                   685.46                   950.92                   1004.3                   1023.1                   1024.8                   577.98                   684.39                   940.46                   992.23                   1011.5                   1013.5                   582.18                   707.14                   1092.6                   1135.5                   1142.8                   1140.1                   578.95                   717.11                   1156.2                   1191.3                   1195.6                   1191.7                   531.53                   627.66                   870.04                   950.01                   984.96                   991.07                   494.80                   572.35                   719.97                   762.38                   786.10                   791.58
20.000                   2.2500                   1.0000                   2000.0                   4000.0                   45.000                   628.41                   720.45                   937.42                   978.48                   995.23                   997.07                   634.12                   743.19                   1035.6                   1075.4                   1084.3                   1082.6                   642.88                   792.86                   1163.7                   1185.0                   1185.8                   1181.4                   642.40                   784.50                   1145.6                   1169.1                   1170.7                   1166.6                   630.74                   731.51                   987.18                   1029.9                   1042.9                   1042.9                   630.67                   729.49                   974.84                   1016.7                   1030.4                   1030.9                   637.38                   766.31                   1115.9                   1144.8                   1148.3                   1144.9                   637.06                   790.15                   1173.1                   1195.3                   1196.1                   1191.7                   581.09                   670.50                   906.27                   975.75                   1005.6                   1010.3                   542.48                   613.72                   750.25                   792.60                   815.75                   820.78
20.000                   2.2500                   1.0000                   2000.0                   4000.0                   50.000                   671.36                   759.39                   970.54                   1004.7                   1017.2                   1017.8                   678.54                   792.26                   1062.6                   1091.2                   1096.3                   1093.8                   689.23                   856.98                   1161.2                   1175.8                   1175.0                   1170.5                   688.22                   846.03                   1146.9                   1163.1                   1163.0                   1158.7                   674.79                   776.15                   1022.2                   1055.4                   1063.7                   1062.3                   674.56                   773.09                   1010.5                   1044.0                   1053.1                   1052.1                   682.98                   823.81                   1124.8                   1144.9                   1146.3                   1142.4                   685.47                   859.33                   1169.7                   1183.9                   1182.9                   1178.3                   624.20                   707.94                   942.29                   1001.9                   1025.8                   1028.7                   584.22                   649.22                   778.15                   820.20                   842.25                   846.75
20.000                   2.2500                   1.0000                   2000.0                   4000.0                   55.000                   705.10                   802.79                   1011.7                   1039.8                   1047.7                   1046.6                   712.63                   842.99                   1083.2                   1103.5                   1105.9                   1102.6                   724.36                   910.61                   1155.3                   1165.5                   1163.7                   1159.1                   722.97                   899.52                   1144.4                   1155.8                   1154.6                   1150.1                   708.95                   824.34                   1054.3                   1078.7                   1083.1                   1080.6                   708.62                   820.81                   1046.0                   1071.1                   1076.0                   1073.7                   717.64                   876.96                   1128.1                   1142.4                   1142.2                   1138.1                   722.65                   917.94                   1163.5                   1172.8                   1170.6                   1165.8                   661.24                   742.82                   985.22                   1035.9                   1052.5                   1053.2                   620.17                   679.37                   803.83                   843.87                   864.19                   868.09
20.000                   2.2500                   1.0000                   2000.0                   4000.0                   60.000                   731.72                   852.18                   1053.1                   1074.1                   1077.6                   1074.9                   740.86                   892.55                   1099.4                   1113.3                   1113.6                   1109.8                   756.73                   953.05                   1149.2                   1156.3                   1153.9                   1149.2                   754.55                   943.36                   1141.2                   1149.2                   1147.2                   1142.6                   736.49                   874.68                   1081.0                   1097.8                   1099.2                   1095.9                   736.06                   871.59                   1076.3                   1093.5                   1095.2                   1091.9                   747.38                   922.70                   1129.2                   1139.3                   1138.0                   1133.7                   757.43                   964.65                   1158.2                   1164.2                   1161.3                   1156.5                   692.54                   780.60                   1030.4                   1070.3                   1080.4                   1079.2                   650.94                   704.67                   827.19                   864.41                   883.00                   886.33
20.000                   2.2500                   1.0000                   2000.0                   4000.0                   65.000                   769.81                   902.80                   1081.8                   1096.1                   1096.9                   1093.4                   782.86                   938.00                   1111.8                   1121.4                   1120.2                   1116.1                   803.67                   987.42                   1146.9                   1151.8                   1148.9                   1144.2                   800.86                   979.68                   1141.1                   1146.7                   1144.0                   1139.4                   776.87                   922.79                   1099.7                   1111.1                   1110.7                   1106.8                   776.49                   920.53                   1096.8                   1108.5                   1108.1                   1104.3                   790.89                   961.82                   1131.8                   1139.0                   1136.8                   1132.4                   807.93                   1001.3                   1156.4                   1160.3                   1156.9                   1152.0                   719.03                   824.21                   1064.6                   1094.6                   1100.5                   1098.1                   675.21                   725.46                   848.47                   882.89                   899.89                   902.70
20.000                   2.2500                   1.0000                   2000.0                   4000.0                   70.000                   818.78                   952.73                   1102.6                   1111.6                   1110.5                   1106.6                   836.38                   981.01                   1122.5                   1128.6                   1126.4                   1122.0                   860.82                   1018.9                   1147.0                   1150.1                   1146.7                   1142.0                   857.78                   1013.1                   1142.9                   1146.5                   1143.2                   1138.5                   828.64                   968.97                   1114.4                   1121.6                   1119.8                   1115.6                   828.44                   967.57                   1112.6                   1119.9                   1118.2                   1114.0                   845.24                   998.22                   1135.7                   1140.4                   1137.5                   1133.0                   869.18                   1033.7                   1156.6                   1158.8                   1155.0                   1150.1                   743.75                   870.45                   1091.3                   1112.9                   1115.8                   1112.6                   696.05                   744.30                   868.92                   900.59                   916.06                   918.38
20.000                   2.2500                   1.0000                   2000.0                   4000.0                   75.000                   872.26                   997.44                   1119.3                   1124.4                   1121.9                   1117.6                   890.64                   1019.4                   1132.4                   1135.8                   1132.7                   1128.1                   914.25                   1047.3                   1149.3                   1150.8                   1147.0                   1142.2                   911.49                   1043.2                   1146.5                   1148.3                   1144.5                   1139.7                   882.68                   1010.2                   1127.0                   1131.0                   1128.2                   1123.7                   882.75                   1009.4                   1125.9                   1130.0                   1127.1                   1122.7                   898.54                   1031.1                   1140.8                   1143.4                   1139.9                   1135.2                   925.07                   1061.9                   1158.8                   1159.5                   1155.3                   1150.3                   777.58                   914.94                   1111.4                   1126.6                   1127.3                   1123.5                   713.77                   764.42                   889.14                   917.94                   931.84                   933.67