% Model:              batchmodel_COIL_N_20_COIL_kr_3_COIL_kh_1.5_FUNZ_freq_2000_FUNZ_I_eff_4000.mph
% Version:            COMSOL 6.0.0.318
% Date:               Feb 9 2022, 03:52
% Table:              Tabella 1 - GRIGLIA_T
% COIL_N                 COIL_kr                  COIL_kh                  FUNZ_freq                FUNZ_I_eff               Time (s)                 Temperatura (degC), Point: (0, 0)Temperatura (degC), Point: (15, 0)Temperatura (degC), Point: (25.641, 0)Temperatura (degC), Point: (27.821, 0)Temperatura (degC), Point: (29.128, 0)Temperatura (degC), Point: (29.99, 0)Temperatura (degC), Point: (0, 62.5)Temperatura (degC), Point: (15, 62.5)Temperatura (degC), Point: (25.641, 62.5)Temperatura (degC), Point: (27.821, 62.5)Temperatura (degC), Point: (29.128, 62.5)Temperatura (degC), Point: (29.99, 62.5)Temperatura (degC), Point: (0, 125)Temperatura (degC), Point: (15, 125)Temperatura (degC), Point: (25.641, 125)Temperatura (degC), Point: (27.821, 125)Temperatura (degC), Point: (29.128, 125)Temperatura (degC), Point: (29.99, 125)Temperatura (degC), Point: (0, 187.5)Temperatura (degC), Point: (15, 187.5)Temperatura (degC), Point: (25.641, 187.5)Temperatura (degC), Point: (27.821, 187.5)Temperatura (degC), Point: (29.128, 187.5)Temperatura (degC), Point: (29.99, 187.5)Temperatura (degC), Point: (0, 250)Temperatura (degC), Point: (15, 250)Temperatura (degC), Point: (25.641, 250)Temperatura (degC), Point: (27.821, 250)Temperatura (degC), Point: (29.128, 250)Temperatura (degC), Point: (29.99, 250)Temperatura (degC), Point: (0, 312.5)Temperatura (degC), Point: (15, 312.5)Temperatura (degC), Point: (25.641, 312.5)Temperatura (degC), Point: (27.821, 312.5)Temperatura (degC), Point: (29.128, 312.5)Temperatura (degC), Point: (29.99, 312.5)Temperatura (degC), Point: (0, 375)Temperatura (degC), Point: (15, 375)Temperatura (degC), Point: (25.641, 375)Temperatura (degC), Point: (27.821, 375)Temperatura (degC), Point: (29.128, 375)Temperatura (degC), Point: (29.99, 375)Temperatura (degC), Point: (0, 437.5)Temperatura (degC), Point: (15, 437.5)Temperatura (degC), Point: (25.641, 437.5)Temperatura (degC), Point: (27.821, 437.5)Temperatura (degC), Point: (29.128, 437.5)Temperatura (degC), Point: (29.99, 437.5)Temperatura (degC), Point: (0, 468.75)Temperatura (degC), Point: (15, 468.75)Temperatura (degC), Point: (25.641, 468.75)Temperatura (degC), Point: (27.821, 468.75)Temperatura (degC), Point: (29.128, 468.75)Temperatura (degC), Point: (29.99, 468.75)Temperatura (degC), Point: (0, 492.19)Temperatura (degC), Point: (15, 492.19)Temperatura (degC), Point: (25.641, 492.19)Temperatura (degC), Point: (27.821, 492.19)Temperatura (degC), Point: (29.128, 492.19)Temperatura (degC), Point: (29.99, 492.19)
20.000                   3.0000                   1.5000                   2000.0                   4000.0                   0.0000                   20.000                   20.000                   20.000                   20.000                   20.061                   20.221                   20.000                   20.000                   20.000                   20.000                   20.061                   20.221                   20.000                   20.000                   20.000                   20.000                   20.061                   20.221                   20.000                   20.000                   20.000                   20.000                   20.061                   20.221                   20.000                   20.000                   20.000                   20.000                   20.061                   20.221                   20.000                   20.000                   20.000                   20.000                   20.061                   20.221                   20.000                   20.000                   20.000                   20.000                   20.061                   20.221                   20.000                   20.000                   20.000                   20.000                   20.060                   20.218                   20.000                   20.000                   20.000                   20.000                   20.054                   20.206                   20.000                   20.000                   20.000                   20.000                   20.036                   20.164
20.000                   3.0000                   1.5000                   2000.0                   4000.0                   5.0000                   29.243                   61.801                   195.57                   248.42                   281.87                   292.23                   29.288                   61.984                   196.02                   247.55                   280.62                   291.03                   29.266                   61.919                   196.01                   248.04                   281.50                   291.90                   29.255                   61.845                   195.30                   246.83                   279.93                   290.35                   29.227                   61.690                   194.65                   246.85                   279.98                   290.23                   29.233                   61.701                   194.58                   246.52                   279.62                   289.88                   29.154                   61.420                   194.26                   245.55                   278.24                   288.47                   29.025                   60.889                   191.21                   241.71                   273.83                   283.93                   28.013                   56.261                   171.59                   215.49                   243.75                   252.91                   31.150                   52.475                   134.60                   164.63                   184.16                   191.06
20.000                   3.0000                   1.5000                   2000.0                   4000.0                   10.000                   85.909                   159.28                   361.30                   433.81                   475.38                   487.05                   86.077                   159.63                   362.27                   434.58                   476.12                   487.77                   85.972                   159.50                   362.33                   434.84                   476.63                   488.31                   85.886                   159.29                   361.52                   433.76                   475.64                   487.38                   85.710                   158.82                   359.89                   432.07                   473.76                   485.42                   85.754                   158.91                   360.27                   432.42                   473.93                   485.62                   85.188                   157.87                   358.28                   429.79                   470.93                   482.52                   83.951                   155.24                   349.76                   418.85                   459.07                   470.39                   76.708                   139.39                   307.38                   365.11                   399.51                   409.58                   75.758                   123.69                   240.35                   277.12                   299.91                   307.26
20.000                   3.0000                   1.5000                   2000.0                   4000.0                   15.000                   171.34                   267.81                   518.62                   607.84                   655.42                   667.95                   171.55                   268.04                   518.77                   607.67                   655.99                   668.74                   171.37                   267.73                   517.00                   605.48                   653.90                   666.73                   171.21                   267.48                   516.61                   604.84                   652.83                   665.54                   170.92                   267.13                   517.78                   607.09                   654.23                   666.72                   171.03                   267.33                   517.96                   607.31                   654.25                   666.58                   169.90                   265.59                   514.20                   602.39                   649.33                   661.64                   166.22                   259.02                   496.45                   579.30                   624.30                   636.27                   150.23                   231.28                   431.75                   499.48                   538.26                   549.14                   137.61                   200.83                   339.48                   381.84                   407.04                   414.93
20.000                   3.0000                   1.5000                   2000.0                   4000.0                   20.000                   262.97                   372.46                   651.40                   754.24                   809.64                   823.18                   263.12                   372.51                   651.28                   753.86                   809.93                   823.69                   262.90                   371.99                   648.47                   750.14                   806.14                   819.93                   262.64                   371.62                   647.80                   748.94                   804.40                   818.07                   262.37                   371.56                   650.01                   752.41                   807.24                   820.76                   262.54                   371.86                   649.97                   752.03                   806.69                   820.13                   261.02                   369.68                   645.90                   746.58                   800.83                   814.08                   254.22                   358.91                   620.53                   711.66                   762.13                   775.02                   229.88                   321.52                   545.66                   621.85                   664.19                   675.49                   205.74                   278.53                   434.35                   481.70                   508.98                   517.01
20.000                   3.0000                   1.5000                   2000.0                   4000.0                   25.000                   353.20                   469.52                   781.34                   918.07                   978.81                   990.76                   353.27                   469.42                   780.69                   917.34                   978.13                   990.10                   353.03                   468.89                   777.88                   913.78                   974.68                   986.72                   352.67                   468.39                   777.02                   912.76                   973.68                   985.75                   352.47                   468.50                   779.08                   915.48                   976.36                   988.38                   352.69                   468.84                   779.71                   916.20                   977.05                   989.05                   350.96                   466.57                   775.02                   910.75                   971.90                   984.04                   340.84                   451.56                   734.01                   852.15                   911.83                   924.62                   309.66                   407.51                   645.64                   726.56                   769.37                   780.03                   278.81                   356.40                   523.11                   573.79                   601.92                   609.52
20.000                   3.0000                   1.5000                   2000.0                   4000.0                   30.000                   437.29                   558.41                   935.53                   1060.8                   1097.2                   1100.4                   437.29                   558.10                   926.64                   1050.7                   1088.5                   1092.2                   437.06                   557.25                   903.12                   1019.4                   1060.2                   1065.6                   436.61                   556.75                   908.06                   1027.7                   1068.4                   1073.4                   436.49                   557.32                   931.24                   1057.0                   1094.3                   1097.8                   436.75                   557.72                   931.44                   1056.6                   1093.6                   1097.0                   434.97                   555.41                   919.83                   1044.5                   1083.7                   1087.8                   421.83                   536.08                   850.40                   972.72                   1022.3                   1031.0                   385.34                   485.45                   721.65                   807.27                   853.09                   863.33                   349.76                   429.77                   595.94                   643.61                   669.58                   676.26
20.000                   3.0000                   1.5000                   2000.0                   4000.0                   35.000                   512.37                   637.48                   1058.4                   1131.3                   1145.7                   1144.2                   512.06                   634.85                   1030.8                   1108.2                   1124.7                   1123.8                   511.26                   629.14                   937.07                   1010.3                   1035.8                   1038.6                   510.88                   629.81                   962.85                   1043.5                   1066.9                   1068.2                   511.48                   635.72                   1049.3                   1124.2                   1139.3                   1138.0                   511.79                   636.14                   1047.0                   1121.5                   1136.6                   1135.2                   509.74                   631.13                   998.94                   1078.7                   1097.3                   1097.1                   493.44                   607.14                   925.75                   1021.3                   1054.8                   1058.9                   452.40                   550.42                   780.68                   866.88                   908.43                   916.95                   414.05                   491.89                   646.26                   689.48                   712.88                   718.68
20.000                   3.0000                   1.5000                   2000.0                   4000.0                   40.000                   579.94                   707.54                   1116.2                   1155.7                   1161.4                   1158.1                   578.78                   700.37                   1080.7                   1126.6                   1134.6                   1132.1                   576.36                   686.05                   956.60                   1008.8                   1026.9                   1028.4                   576.32                   688.76                   991.87                   1048.7                   1064.1                   1064.0                   578.82                   704.27                   1104.2                   1145.9                   1152.5                   1149.4                   579.22                   704.82                   1103.5                   1144.9                   1151.3                   1148.2                   576.23                   693.64                   1037.9                   1089.6                   1100.2                   1098.4                   557.31                   668.73                   1019.7                   1090.5                   1106.9                   1106.2                   511.11                   604.57                   832.83                   914.11                   951.08                   958.05                   470.37                   544.33                   686.31                   725.69                   747.33                   752.56
20.000                   3.0000                   1.5000                   2000.0                   4000.0                   45.000                   637.28                   770.62                   1137.4                   1162.2                   1164.1                   1160.1                   634.96                   756.13                   1102.3                   1132.8                   1136.8                   1133.5                   630.37                   730.82                   982.38                   1023.9                   1037.0                   1037.2                   630.84                   735.79                   1018.5                   1060.7                   1070.9                   1069.7                   635.87                   764.54                   1125.3                   1152.1                   1154.7                   1150.9                   636.36                   765.66                   1125.8                   1152.1                   1154.6                   1150.8                   631.97                   744.77                   1063.5                   1099.0                   1105.0                   1102.4                   612.97                   724.69                   1086.3                   1128.3                   1135.4                   1132.7                   561.93                   649.38                   873.01                   945.33                   977.44                   983.01                   519.32                   588.24                   718.03                   754.80                   775.57                   780.39
20.000                   3.0000                   1.5000                   2000.0                   4000.0                   50.000                   681.16                   830.39                   1141.0                   1158.3                   1158.3                   1154.1                   678.09                   810.14                   1111.0                   1132.9                   1134.8                   1131.1                   672.12                   774.00                   1016.0                   1049.2                   1057.8                   1056.5                   672.98                   781.35                   1044.5                   1076.1                   1082.5                   1080.4                   679.60                   822.21                   1130.5                   1149.4                   1150.1                   1146.0                   680.15                   824.03                   1131.4                   1149.8                   1150.3                   1146.2                   674.96                   795.14                   1081.0                   1106.4                   1109.6                   1106.4                   658.73                   781.63                   1112.2                   1139.3                   1142.3                   1138.7                   604.15                   686.03                   903.31                   965.45                   992.72                   997.04                   560.69                   624.09                   744.14                   780.28                   800.49                   804.93
20.000                   3.0000                   1.5000                   2000.0                   4000.0                   55.000                   717.02                   883.80                   1139.4                   1151.6                   1150.4                   1146.1                   713.30                   861.32                   1115.6                   1131.4                   1131.7                   1127.7                   706.23                   819.56                   1049.5                   1074.6                   1079.2                   1076.7                   707.39                   828.30                   1068.4                   1091.2                   1094.5                   1091.5                   715.31                   874.90                   1130.9                   1144.4                   1143.7                   1139.5                   715.93                   877.22                   1131.9                   1145.0                   1144.2                   1139.9                   710.04                   845.34                   1094.8                   1112.8                   1113.9                   1110.3                   697.35                   839.15                   1125.1                   1142.6                   1143.0                   1138.9                   641.35                   718.94                   932.87                   985.91                   1008.3                   1011.3                   597.38                   655.45                   768.15                   803.99                   823.46                   827.49
20.000                   3.0000                   1.5000                   2000.0                   4000.0                   60.000                   745.78                   928.79                   1135.9                   1144.7                   1142.8                   1138.3                   741.20                   907.86                   1118.6                   1129.9                   1128.9                   1124.8                   732.83                   868.25                   1077.7                   1095.0                   1096.5                   1093.2                   734.25                   876.59                   1088.4                   1104.1                   1105.0                   1101.4                   743.76                   920.59                   1129.7                   1139.3                   1137.8                   1133.4                   744.53                   923.15                   1130.8                   1140.1                   1138.5                   1134.1                   737.55                   894.01                   1105.8                   1118.3                   1117.9                   1113.9                   728.08                   895.19                   1131.8                   1143.2                   1142.0                   1137.6                   673.96                   749.24                   965.54                   1011.8                   1029.4                   1030.8                   629.62                   682.72                   790.95                   826.18                   844.57                   848.17
20.000                   3.0000                   1.5000                   2000.0                   4000.0                   65.000                   786.99                   965.41                   1135.2                   1141.5                   1139.0                   1134.5                   779.25                   948.23                   1122.9                   1130.9                   1129.0                   1124.7                   764.56                   915.80                   1096.2                   1108.0                   1107.7                   1103.9                   766.98                   922.54                   1102.8                   1113.7                   1113.0                   1109.1                   783.65                   958.65                   1130.7                   1137.6                   1135.3                   1130.9                   785.14                   961.13                   1131.8                   1138.4                   1136.1                   1131.6                   773.54                   937.73                   1114.7                   1123.5                   1122.0                   1117.8                   761.76                   942.80                   1135.9                   1143.6                   1141.4                   1136.9                   700.00                   783.43                   1004.1                   1043.7                   1055.9                   1055.6                   656.16                   704.67                   812.57                   846.21                   863.47                   866.64
20.000                   3.0000                   1.5000                   2000.0                   4000.0                   70.000                   837.71                   999.13                   1136.3                   1140.5                   1137.5                   1132.9                   828.57                   985.75                   1127.9                   1133.2                   1130.6                   1126.1                   810.85                   960.49                   1111.1                   1118.7                   1117.0                   1112.8                   813.77                   965.61                   1115.0                   1122.1                   1120.2                   1115.9                   833.74                   993.81                   1133.2                   1137.8                   1134.9                   1130.4                   835.69                   996.06                   1134.2                   1138.6                   1135.6                   1131.1                   822.33                   978.23                   1122.9                   1128.7                   1126.3                   1121.9                   809.99                   985.30                   1140.0                   1144.8                   1141.9                   1137.3                   722.78                   821.09                   1039.3                   1071.3                   1079.1                   1077.5                   679.48                   724.01                   833.29                   865.12                   881.23                   883.98
20.000                   3.0000                   1.5000                   2000.0                   4000.0                   75.000                   892.43                   1030.1                   1139.2                   1141.5                   1138.0                   1133.3                   883.56                   1020.3                   1133.6                   1136.6                   1133.4                   1128.8                   866.07                   1001.8                   1123.2                   1127.6                   1124.8                   1120.4                   868.93                   1005.4                   1125.5                   1129.6                   1126.7                   1122.3                   888.51                   1026.1                   1137.1                   1139.7                   1136.3                   1131.6                   890.60                   1028.0                   1137.9                   1140.4                   1136.9                   1132.2                   878.02                   1015.3                   1130.7                   1134.0                   1130.9                   1126.3                   866.86                   1022.9                   1144.4                   1147.0                   1143.5                   1138.7                   745.25                   861.10                   1069.7                   1094.1                   1098.4                   1095.7                   699.53                   741.67                   853.17                   883.02                   897.94                   900.28