% Model:              batchmodel_COIL_N_20_COIL_kr_3_COIL_kh_1_FUNZ_freq_10000_FUNZ_I_eff_4000.mph
% Version:            COMSOL 6.0.0.318
% Date:               Feb 9 2022, 03:45
% Table:              Tabella 1 - GRIGLIA_T
% COIL_N                 COIL_kr                  COIL_kh                  FUNZ_freq                FUNZ_I_eff               Time (s)                 Temperatura (degC), Point: (0, 0)Temperatura (degC), Point: (15, 0)Temperatura (degC), Point: (28.051, 0)Temperatura (degC), Point: (29.025, 0)Temperatura (degC), Point: (29.61, 0)Temperatura (degC), Point: (29.99, 0)Temperatura (degC), Point: (0, 62.5)Temperatura (degC), Point: (15, 62.5)Temperatura (degC), Point: (28.051, 62.5)Temperatura (degC), Point: (29.025, 62.5)Temperatura (degC), Point: (29.61, 62.5)Temperatura (degC), Point: (29.99, 62.5)Temperatura (degC), Point: (0, 125)Temperatura (degC), Point: (15, 125)Temperatura (degC), Point: (28.051, 125)Temperatura (degC), Point: (29.025, 125)Temperatura (degC), Point: (29.61, 125)Temperatura (degC), Point: (29.99, 125)Temperatura (degC), Point: (0, 187.5)Temperatura (degC), Point: (15, 187.5)Temperatura (degC), Point: (28.051, 187.5)Temperatura (degC), Point: (29.025, 187.5)Temperatura (degC), Point: (29.61, 187.5)Temperatura (degC), Point: (29.99, 187.5)Temperatura (degC), Point: (0, 250)Temperatura (degC), Point: (15, 250)Temperatura (degC), Point: (28.051, 250)Temperatura (degC), Point: (29.025, 250)Temperatura (degC), Point: (29.61, 250)Temperatura (degC), Point: (29.99, 250)Temperatura (degC), Point: (0, 312.5)Temperatura (degC), Point: (15, 312.5)Temperatura (degC), Point: (28.051, 312.5)Temperatura (degC), Point: (29.025, 312.5)Temperatura (degC), Point: (29.61, 312.5)Temperatura (degC), Point: (29.99, 312.5)Temperatura (degC), Point: (0, 375)Temperatura (degC), Point: (15, 375)Temperatura (degC), Point: (28.051, 375)Temperatura (degC), Point: (29.025, 375)Temperatura (degC), Point: (29.61, 375)Temperatura (degC), Point: (29.99, 375)Temperatura (degC), Point: (0, 437.5)Temperatura (degC), Point: (15, 437.5)Temperatura (degC), Point: (28.051, 437.5)Temperatura (degC), Point: (29.025, 437.5)Temperatura (degC), Point: (29.61, 437.5)Temperatura (degC), Point: (29.99, 437.5)Temperatura (degC), Point: (0, 468.75)Temperatura (degC), Point: (15, 468.75)Temperatura (degC), Point: (28.051, 468.75)Temperatura (degC), Point: (29.025, 468.75)Temperatura (degC), Point: (29.61, 468.75)Temperatura (degC), Point: (29.99, 468.75)Temperatura (degC), Point: (0, 492.19)Temperatura (degC), Point: (15, 492.19)Temperatura (degC), Point: (28.051, 492.19)Temperatura (degC), Point: (29.025, 492.19)Temperatura (degC), Point: (29.61, 492.19)Temperatura (degC), Point: (29.99, 492.19)
20.000                   3.0000                   1.0000                   10000                    4000.0                   0.0000                   20.000                   20.000                   20.000                   20.001                   20.320                   20.996                   20.000                   20.000                   20.000                   20.001                   20.320                   20.996                   20.000                   20.000                   20.000                   20.001                   20.321                   20.997                   20.000                   20.000                   20.000                   20.001                   20.320                   20.997                   20.000                   20.000                   20.000                   20.001                   20.320                   20.996                   20.000                   20.000                   20.000                   20.001                   20.320                   20.996                   20.000                   20.000                   20.000                   20.001                   20.320                   20.996                   20.000                   20.000                   20.000                   20.001                   20.315                   20.986                   20.000                   20.000                   20.000                   20.001                   20.296                   20.951                   20.000                   20.000                   20.000                   20.001                   20.276                   20.912
20.000                   3.0000                   1.0000                   10000                    4000.0                   5.0000                   39.346                   119.39                   681.75                   806.44                   873.18                   889.81                   39.293                   119.92                   683.44                   808.65                   875.62                   892.27                   39.299                   120.02                   685.49                   811.66                   878.92                   895.59                   39.308                   120.19                   688.05                   815.20                   882.79                   899.47                   39.197                   119.54                   683.26                   808.58                   875.58                   892.23                   39.138                   119.28                   681.89                   806.68                   873.49                   890.13                   39.351                   120.15                   685.49                   811.62                   878.86                   895.53                   39.033                   118.55                   670.21                   788.68                   853.14                   869.35                   38.221                   113.69                   629.68                   731.48                   787.12                   801.85                   55.099                   130.32                   571.16                   649.90                   692.71                   704.26
20.000                   3.0000                   1.0000                   10000                    4000.0                   10.000                   154.55                   307.96                   1031.5                   1100.6                   1118.2                   1119.9                   154.80                   308.27                   1005.8                   1079.5                   1099.3                   1101.6                   154.99                   310.19                   1112.8                   1171.7                   1185.4                   1186.0                   155.19                   309.94                   1079.6                   1143.3                   1158.6                   1159.6                   154.61                   308.65                   1102.3                   1165.2                   1180.2                   1181.1                   154.49                   307.15                   893.92                   953.47                   978.98                   984.51                   155.06                   309.47                   1039.8                   1106.1                   1122.8                   1124.2                   153.21                   305.65                   990.83                   1064.3                   1085.9                   1088.7                   148.85                   294.05                   927.91                   1012.4                   1044.2                   1050.1                   163.33                   302.24                   815.78                   901.02                   941.58                   950.87
20.000                   3.0000                   1.0000                   10000                    4000.0                   15.000                   295.02                   458.86                   1083.3                   1116.8                   1124.5                   1124.3                   295.17                   458.58                   1079.7                   1114.0                   1122.0                   1121.9                   296.20                   465.50                   1154.6                   1179.7                   1184.6                   1183.6                   296.18                   462.81                   1129.6                   1158.0                   1164.0                   1163.3                   295.19                   461.00                   1137.8                   1166.3                   1172.4                   1171.6                   294.78                   455.46                   972.37                   1012.5                   1027.5                   1030.0                   296.04                   462.33                   1101.8                   1131.6                   1138.2                   1137.7                   293.35                   456.18                   1045.5                   1085.9                   1097.0                   1097.7                   286.25                   446.80                   1082.8                   1117.8                   1125.9                   1125.7                   292.71                   439.85                   942.36                   999.91                   1023.3                   1027.9
20.000                   3.0000                   1.0000                   10000                    4000.0                   20.000                   412.56                   567.90                   1110.2                   1130.6                   1134.7                   1133.8                   412.50                   567.55                   1110.5                   1131.0                   1135.2                   1134.2                   414.17                   574.94                   1138.0                   1154.9                   1157.8                   1156.5                   413.87                   571.96                   1126.9                   1145.3                   1148.7                   1147.6                   412.65                   569.52                   1125.1                   1144.0                   1147.6                   1146.5                   412.07                   564.31                   1086.8                   1111.0                   1116.4                   1115.8                   413.93                   572.12                   1120.4                   1139.0                   1142.5                   1141.4                   410.98                   565.18                   1098.0                   1120.6                   1125.5                   1124.7                   404.13                   560.12                   1108.6                   1129.0                   1133.1                   1132.2                   403.90                   550.66                   1113.8                   1140.0                   1145.8                   1145.2
20.000                   3.0000                   1.0000                   10000                    4000.0                   25.000                   506.10                   650.17                   1132.0                   1145.5                   1147.6                   1146.2                   505.93                   649.81                   1132.1                   1145.8                   1147.9                   1146.5                   507.63                   655.34                   1141.2                   1153.6                   1155.4                   1153.9                   507.28                   653.15                   1137.1                   1150.1                   1152.0                   1150.5                   506.02                   650.82                   1135.3                   1148.6                   1150.6                   1149.1                   505.55                   647.54                   1126.7                   1141.0                   1143.3                   1142.0                   507.53                   653.80                   1136.4                   1149.3                   1151.1                   1149.7                   504.52                   647.61                   1127.0                   1141.2                   1143.5                   1142.2                   498.52                   643.48                   1124.9                   1139.0                   1141.3                   1140.0                   497.11                   643.44                   1171.2                   1184.1                   1185.8                   1184.2
20.000                   3.0000                   1.0000                   10000                    4000.0                   30.000                   579.19                   712.94                   1150.1                   1159.9                   1160.8                   1159.2                   579.05                   713.22                   1150.1                   1159.9                   1160.9                   1159.2                   580.48                   717.08                   1154.1                   1163.5                   1164.3                   1162.6                   580.20                   715.78                   1152.4                   1161.9                   1162.8                   1161.1                   579.08                   713.54                   1150.9                   1160.6                   1161.6                   1159.9                   578.79                   711.69                   1148.0                   1158.0                   1159.0                   1157.4                   580.50                   716.33                   1152.4                   1161.9                   1162.8                   1161.1                   577.61                   710.85                   1146.5                   1156.5                   1157.6                   1156.0                   572.37                   706.14                   1140.0                   1150.3                   1151.5                   1149.9                   573.88                   719.08                   1204.1                   1212.7                   1213.0                   1211.1
20.000                   3.0000                   1.0000                   10000                    4000.0                   35.000                   639.24                   771.08                   1167.9                   1175.2                   1175.4                   1173.5                   639.05                   770.73                   1167.9                   1175.2                   1175.4                   1173.5                   640.21                   773.69                   1169.8                   1176.9                   1177.1                   1175.2                   640.01                   772.74                   1169.1                   1176.3                   1176.4                   1174.6                   639.10                   770.71                   1167.9                   1175.2                   1175.4                   1173.5                   638.92                   769.52                   1166.9                   1174.3                   1174.5                   1172.6                   640.29                   773.36                   1169.2                   1176.3                   1176.5                   1174.6                   637.63                   767.91                   1164.3                   1171.7                   1172.0                   1170.1                   633.26                   762.06                   1155.7                   1163.3                   1163.6                   1161.8                   638.74                   794.59                   1235.3                   1241.5                   1241.0                   1238.8
20.000                   3.0000                   1.0000                   10000                    4000.0                   40.000                   687.19                   831.35                   1187.3                   1192.9                   1192.6                   1190.5                   687.00                   830.66                   1187.3                   1192.9                   1192.6                   1190.6                   687.88                   832.97                   1188.4                   1194.0                   1193.6                   1191.6                   687.74                   832.32                   1188.1                   1193.7                   1193.3                   1191.3                   687.04                   830.57                   1187.1                   1192.8                   1192.4                   1190.4                   686.94                   829.87                   1186.7                   1192.4                   1192.1                   1190.0                   687.94                   833.03                   1188.0                   1193.6                   1193.3                   1191.2                   685.63                   827.20                   1183.0                   1188.7                   1188.4                   1186.4                   682.24                   819.94                   1173.3                   1179.1                   1178.8                   1176.9                   691.31                   875.60                   1268.4                   1273.1                   1272.1                   1269.7
20.000                   3.0000                   1.0000                   10000                    4000.0                   45.000                   724.26                   892.73                   1209.1                   1213.7                   1212.9                   1210.8                   723.88                   892.23                   1209.2                   1213.7                   1213.0                   1210.8                   724.54                   893.91                   1209.9                   1214.5                   1213.7                   1211.6                   724.46                   893.57                   1209.8                   1214.3                   1213.6                   1211.4                   723.89                   892.16                   1209.0                   1213.5                   1212.8                   1210.6                   723.85                   891.83                   1208.8                   1213.4                   1212.6                   1210.4                   724.61                   894.12                   1209.6                   1214.1                   1213.4                   1211.2                   722.44                   887.71                   1203.8                   1208.4                   1207.7                   1205.5                   719.88                   880.43                   1193.8                   1198.3                   1197.6                   1195.5                   733.93                   956.19                   1303.2                   1306.9                   1305.5                   1302.8
