% Model:              batchmodel_COIL_N_20_COIL_kr_3_COIL_kh_2_FUNZ_freq_6000_FUNZ_I_eff_1000.mph
% Version:            COMSOL 6.0.0.318
% Date:               Feb 9 2022, 04:01
% Table:              Tabella 1 - GRIGLIA_T
% COIL_N                 COIL_kr                  COIL_kh                  FUNZ_freq                FUNZ_I_eff               Time (s)                 Temperatura (degC), Point: (0, 0)Temperatura (degC), Point: (15, 0)Temperatura (degC), Point: (27.483, 0)Temperatura (degC), Point: (28.742, 0)Temperatura (degC), Point: (29.497, 0)Temperatura (degC), Point: (29.99, 0)Temperatura (degC), Point: (0, 62.5)Temperatura (degC), Point: (15, 62.5)Temperatura (degC), Point: (27.483, 62.5)Temperatura (degC), Point: (28.742, 62.5)Temperatura (degC), Point: (29.497, 62.5)Temperatura (degC), Point: (29.99, 62.5)Temperatura (degC), Point: (0, 125)Temperatura (degC), Point: (15, 125)Temperatura (degC), Point: (27.483, 125)Temperatura (degC), Point: (28.742, 125)Temperatura (degC), Point: (29.497, 125)Temperatura (degC), Point: (29.99, 125)Temperatura (degC), Point: (0, 187.5)Temperatura (degC), Point: (15, 187.5)Temperatura (degC), Point: (27.483, 187.5)Temperatura (degC), Point: (28.742, 187.5)Temperatura (degC), Point: (29.497, 187.5)Temperatura (degC), Point: (29.99, 187.5)Temperatura (degC), Point: (0, 250)Temperatura (degC), Point: (15, 250)Temperatura (degC), Point: (27.483, 250)Temperatura (degC), Point: (28.742, 250)Temperatura (degC), Point: (29.497, 250)Temperatura (degC), Point: (29.99, 250)Temperatura (degC), Point: (0, 312.5)Temperatura (degC), Point: (15, 312.5)Temperatura (degC), Point: (27.483, 312.5)Temperatura (degC), Point: (28.742, 312.5)Temperatura (degC), Point: (29.497, 312.5)Temperatura (degC), Point: (29.99, 312.5)Temperatura (degC), Point: (0, 375)Temperatura (degC), Point: (15, 375)Temperatura (degC), Point: (27.483, 375)Temperatura (degC), Point: (28.742, 375)Temperatura (degC), Point: (29.497, 375)Temperatura (degC), Point: (29.99, 375)Temperatura (degC), Point: (0, 437.5)Temperatura (degC), Point: (15, 437.5)Temperatura (degC), Point: (27.483, 437.5)Temperatura (degC), Point: (28.742, 437.5)Temperatura (degC), Point: (29.497, 437.5)Temperatura (degC), Point: (29.99, 437.5)Temperatura (degC), Point: (0, 468.75)Temperatura (degC), Point: (15, 468.75)Temperatura (degC), Point: (27.483, 468.75)Temperatura (degC), Point: (28.742, 468.75)Temperatura (degC), Point: (29.497, 468.75)Temperatura (degC), Point: (29.99, 468.75)Temperatura (degC), Point: (0, 492.19)Temperatura (degC), Point: (15, 492.19)Temperatura (degC), Point: (27.483, 492.19)Temperatura (degC), Point: (28.742, 492.19)Temperatura (degC), Point: (29.497, 492.19)Temperatura (degC), Point: (29.99, 492.19)
20.000                   3.0000                   2.0000                   6000.0                   1000.0                   0.0000                   20.000                   20.000                   20.000                   20.000                   20.006                   20.121                   20.000                   20.000                   20.000                   20.000                   20.006                   20.121                   20.000                   20.000                   20.000                   20.000                   20.006                   20.121                   20.000                   20.000                   20.000                   20.000                   20.006                   20.121                   20.000                   20.000                   20.000                   20.000                   20.006                   20.121                   20.000                   20.000                   20.000                   20.000                   20.006                   20.121                   20.000                   20.000                   20.000                   20.000                   20.006                   20.121                   20.000                   20.000                   20.000                   20.000                   20.005                   20.119                   20.000                   20.000                   20.000                   20.000                   20.005                   20.110                   20.000                   20.000                   20.000                   20.000                   20.002                   20.083
20.000                   3.0000                   2.0000                   6000.0                   1000.0                   5.0000                   21.724                   26.699                   54.150                   59.689                   63.279                   64.956                   21.712                   26.648                   54.034                   59.548                   63.095                   64.733                   21.709                   26.637                   54.122                   59.696                   63.282                   64.940                   21.714                   26.657                   54.124                   59.685                   63.260                   64.911                   21.719                   26.678                   54.050                   59.553                   63.107                   64.761                   21.727                   26.702                   54.237                   59.773                   63.317                   64.955                   21.808                   27.003                   55.360                   60.998                   64.636                   66.325                   21.906                   27.395                   56.808                   62.474                   66.028                   67.651                   21.807                   26.994                   54.776                   60.142                   63.360                   64.854                   22.288                   26.568                   46.865                   50.586                   52.873                   53.974
20.000                   3.0000                   2.0000                   6000.0                   1000.0                   10.000                   31.052                   43.469                   83.047                   89.101                   92.803                   94.456                   31.051                   43.507                   83.312                   89.338                   93.007                   94.626                   31.077                   43.623                   84.050                   90.220                   93.977                   95.632                   31.071                   43.570                   83.717                   89.851                   93.580                   95.233                   31.026                   43.383                   82.622                   88.553                   92.207                   93.844                   31.154                   43.741                   84.155                   90.312                   94.047                   95.700                   31.423                   44.107                   84.033                   90.036                   93.730                   95.378                   32.070                   45.568                   88.030                   94.318                   98.076                   99.757                   31.545                   44.483                   85.467                   91.525                   95.007                   96.617                   31.938                   43.272                   75.476                   79.903                   82.370                   83.492
20.000                   3.0000                   2.0000                   6000.0                   1000.0                   15.000                   47.348                   63.185                   104.29                   110.02                   113.47                   115.03                   47.382                   63.287                   104.66                   110.34                   113.83                   115.43                   47.460                   63.481                   105.34                   111.16                   114.66                   116.26                   47.430                   63.397                   105.19                   111.03                   114.53                   116.12                   47.292                   63.056                   103.83                   109.41                   112.80                   114.36                   47.657                   63.760                   105.98                   111.87                   115.41                   117.01                   47.936                   63.943                   105.46                   111.20                   114.70                   116.31                   49.302                   66.157                   109.73                   115.67                   119.20                   120.80                   47.881                   63.689                   104.04                   109.51                   112.58                   113.98                   46.977                   60.424                   90.893                   94.519                   96.550                   97.536
20.000                   3.0000                   2.0000                   6000.0                   1000.0                   20.000                   66.322                   84.141                   129.63                   136.16                   140.32                   142.18                   66.374                   84.231                   129.73                   136.26                   140.40                   142.27                   66.482                   84.416                   130.04                   136.54                   140.68                   142.53                   66.451                   84.360                   129.92                   136.42                   140.57                   142.44                   66.266                   84.047                   129.51                   136.06                   140.23                   142.11                   66.832                   84.874                   130.75                   137.28                   141.43                   143.30                   66.999                   84.849                   130.12                   136.58                   140.67                   142.51                   68.689                   86.985                   132.41                   138.69                   142.62                   144.37                   65.873                   82.583                   123.48                   129.10                   132.62                   134.23                   63.011                   76.714                   106.80                   110.61                   113.00                   114.15
20.000                   3.0000                   2.0000                   6000.0                   1000.0                   25.000                   86.667                   105.92                   154.16                   161.05                   165.39                   167.26                   86.768                   106.12                   154.67                   161.53                   165.78                   167.58                   86.920                   106.38                   155.56                   162.53                   166.85                   168.69                   86.963                   106.48                   155.94                   163.07                   167.50                   169.40                   86.745                   106.13                   155.02                   162.00                   166.38                   168.32                   87.464                   107.09                   156.77                   163.83                   168.21                   170.06                   87.479                   106.84                   155.55                   162.41                   166.69                   168.58                   89.169                   108.80                   158.19                   165.11                   169.24                   170.99                   84.717                   102.44                   146.69                   152.78                   156.34                   157.90                   80.332                   94.986                   128.68                   133.16                   135.80                   137.05
20.000                   3.0000                   2.0000                   6000.0                   1000.0                   30.000                   108.31                   128.32                   177.90                   184.86                   189.20                   191.07                   108.46                   128.59                   178.51                   185.45                   189.74                   191.54                   108.65                   128.89                   179.38                   186.43                   190.78                   192.62                   108.82                   129.15                   179.94                   187.11                   191.55                   193.43                   108.61                   128.82                   179.07                   186.11                   190.49                   192.40                   109.37                   129.78                   180.71                   187.83                   192.23                   194.08                   109.31                   129.50                   179.76                   186.74                   191.08                   192.97                   110.26                   130.46                   180.75                   187.73                   191.94                   193.73                   103.83                   121.84                   166.41                   172.50                   176.10                   177.68                   97.756                   112.48                   145.82                   150.15                   152.71                   153.91
20.000                   3.0000                   2.0000                   6000.0                   1000.0                   35.000                   130.25                   150.91                   201.88                   208.93                   213.33                   215.23                   130.44                   151.20                   202.35                   209.41                   213.82                   215.72                   130.67                   151.51                   202.86                   209.94                   214.36                   216.26                   130.96                   151.90                   203.39                   210.47                   214.90                   216.80                   130.78                   151.64                   202.99                   210.08                   214.50                   216.40                   131.55                   152.54                   204.14                   211.24                   215.67                   217.58                   131.43                   152.28                   203.66                   210.76                   215.18                   217.09                   131.44                   151.95                   202.03                   208.88                   213.15                   215.00                   122.93                   140.98                   184.71                   190.65                   194.37                   196.03                   115.03                   129.42                   160.70                   164.57                   166.95                   168.07
20.000                   3.0000                   2.0000                   6000.0                   1000.0                   40.000                   152.51                   173.80                   226.44                   233.76                   238.33                   240.27                   152.71                   174.06                   226.86                   234.20                   238.78                   240.72                   152.97                   174.38                   227.30                   234.64                   239.23                   241.18                   153.32                   174.80                   227.85                   235.21                   239.81                   241.76                   153.18                   174.61                   227.55                   234.90                   239.48                   241.43                   153.92                   175.45                   228.58                   235.95                   240.55                   242.50                   153.78                   175.21                   228.17                   235.53                   240.11                   242.06                   152.48                   173.40                   224.83                   231.95                   236.39                   238.28                   141.70                   159.92                   204.50                   210.65                   214.50                   216.19                   131.99                   146.22                   177.37                   181.26                   183.67                   184.80
20.000                   3.0000                   2.0000                   6000.0                   1000.0                   45.000                   174.87                   196.80                   251.26                   258.87                   263.61                   265.60                   175.07                   197.05                   251.61                   259.25                   264.00                   265.99                   175.36                   197.38                   252.00                   259.62                   264.38                   266.37                   175.76                   197.83                   252.55                   260.20                   264.99                   266.98                   175.65                   197.70                   252.35                   259.99                   264.74                   266.73                   176.37                   198.47                   253.26                   260.91                   265.69                   267.68                   176.21                   198.24                   252.90                   260.54                   265.30                   267.28                   173.56                   194.93                   247.86                   255.26                   259.88                   261.81                   160.54                   178.99                   224.56                   230.93                   234.91                   236.64                   149.04                   163.19                   194.34                   198.28                   200.73                   201.86
20.000                   3.0000                   2.0000                   6000.0                   1000.0                   50.000                   197.51                   220.19                   276.86                   284.83                   289.79                   291.83                   197.71                   220.42                   277.09                   285.06                   290.02                   292.05                   198.04                   220.79                   277.51                   285.46                   290.40                   292.43                   198.45                   221.23                   278.01                   285.98                   290.95                   292.98                   198.37                   221.14                   277.91                   285.88                   290.85                   292.89                   199.05                   221.85                   278.68                   286.66                   291.64                   293.68                   198.84                   221.59                   278.33                   286.30                   291.26                   293.29                   194.76                   216.75                   271.58                   279.29                   284.10                   286.07                   179.55                   198.44                   245.48                   252.10                   256.22                   257.98                   166.41                   180.67                   212.28                   216.29                   218.78                   219.93
20.000                   3.0000                   2.0000                   6000.0                   1000.0                   55.000                   220.15                   243.59                   302.46                   310.79                   315.97                   318.07                   220.35                   243.78                   302.57                   310.87                   316.04                   318.12                   220.73                   244.21                   303.01                   311.29                   316.42                   318.49                   221.14                   244.63                   303.47                   311.76                   316.91                   318.98                   221.09                   244.58                   303.46                   311.78                   316.96                   319.04                   221.73                   245.23                   304.10                   312.41                   317.59                   319.67                   221.47                   244.93                   303.76                   312.06                   317.22                   319.31                   215.96                   238.57                   295.30                   303.32                   308.32                   310.33                   198.57                   217.89                   266.40                   273.27                   277.53                   279.32                   183.77                   198.15                   230.21                   234.31                   236.84                   237.99
20.000                   3.0000                   2.0000                   6000.0                   1000.0                   60.000                   242.79                   266.98                   328.06                   336.75                   342.15                   344.31                   242.99                   267.15                   328.04                   336.69                   342.06                   344.19                   243.42                   267.62                   328.52                   337.12                   342.44                   344.56                   243.83                   268.03                   328.93                   337.53                   342.87                   344.98                   243.81                   268.02                   329.01                   337.67                   343.07                   345.20                   244.41                   268.61                   329.52                   338.16                   343.54                   345.67                   244.10                   268.28                   329.19                   337.82                   343.19                   345.32                   237.17                   260.39                   319.02                   327.36                   332.55                   334.60                   217.58                   237.34                   287.31                   294.44                   298.83                   300.66                   201.13                   215.62                   248.14                   252.32                   254.90                   256.06
20.000                   3.0000                   2.0000                   6000.0                   1000.0                   65.000                   265.60                   290.62                   354.19                   363.27                   368.91                   371.11                   265.75                   290.71                   353.89                   362.89                   368.47                   370.64                   266.25                   291.26                   354.49                   363.44                   368.98                   371.13                   266.73                   291.77                   355.17                   364.17                   369.74                   371.91                   266.70                   291.75                   355.21                   364.25                   369.88                   372.06                   267.22                   292.23                   355.47                   364.47                   370.07                   372.24                   266.87                   291.88                   355.23                   364.24                   369.83                   372.02                   258.44                   282.40                   343.15                   351.80                   357.19                   359.28                   236.72                   257.04                   308.73                   316.12                   320.67                   322.54                   218.74                   233.50                   266.75                   271.02                   273.66                   274.83
20.000                   3.0000                   2.0000                   6000.0                   1000.0                   70.000                   288.47                   314.37                   380.53                   390.00                   395.88                   398.12                   288.55                   314.34                   379.87                   389.22                   395.02                   397.23                   289.13                   314.99                   380.62                   389.94                   395.69                   397.90                   289.69                   315.63                   381.69                   391.11                   396.95                   399.17                   289.64                   315.58                   381.63                   391.08                   396.95                   399.18                   290.08                   315.94                   381.62                   390.99                   396.80                   399.02                   289.69                   315.58                   381.49                   390.89                   396.73                   398.96                   279.74                   304.47                   367.43                   376.40                   381.98                   384.11                   255.91                   276.83                   330.32                   338.00                   342.71                   344.62                   236.45                   251.53                   285.60                   289.98                   292.67                   293.86
20.000                   3.0000                   2.0000                   6000.0                   1000.0                   75.000                   311.34                   338.11                   406.86                   416.73                   422.85                   425.13                   311.36                   337.97                   405.86                   415.56                   421.57                   423.82                   312.01                   338.71                   406.74                   416.43                   422.41                   424.67                   312.66                   339.50                   408.21                   418.06                   424.16                   426.44                   312.59                   339.41                   408.06                   417.91                   424.02                   426.30                   312.94                   339.64                   407.77                   417.51                   423.54                   425.79                   312.51                   339.28                   407.75                   417.55                   423.63                   425.91                   301.04                   326.55                   391.71                   401.00                   406.77                   408.94                   275.10                   296.62                   351.92                   359.87                   364.75                   366.69                   254.16                   269.55                   304.44                   308.94                   311.69                   312.88