% Model:              batchmodel_COIL_N_20_COIL_kr_3_COIL_kh_1_FUNZ_freq_2000_FUNZ_I_eff_1000.mph
% Version:            COMSOL 6.0.0.318
% Date:               Feb 9 2022, 02:48
% Table:              Tabella 1 - GRIGLIA_T
% COIL_N                 COIL_kr                  COIL_kh                  FUNZ_freq                FUNZ_I_eff               Time (s)                 Temperatura (degC), Point: (0, 0)Temperatura (degC), Point: (15, 0)Temperatura (degC), Point: (25.641, 0)Temperatura (degC), Point: (27.821, 0)Temperatura (degC), Point: (29.128, 0)Temperatura (degC), Point: (29.99, 0)Temperatura (degC), Point: (0, 62.5)Temperatura (degC), Point: (15, 62.5)Temperatura (degC), Point: (25.641, 62.5)Temperatura (degC), Point: (27.821, 62.5)Temperatura (degC), Point: (29.128, 62.5)Temperatura (degC), Point: (29.99, 62.5)Temperatura (degC), Point: (0, 125)Temperatura (degC), Point: (15, 125)Temperatura (degC), Point: (25.641, 125)Temperatura (degC), Point: (27.821, 125)Temperatura (degC), Point: (29.128, 125)Temperatura (degC), Point: (29.99, 125)Temperatura (degC), Point: (0, 187.5)Temperatura (degC), Point: (15, 187.5)Temperatura (degC), Point: (25.641, 187.5)Temperatura (degC), Point: (27.821, 187.5)Temperatura (degC), Point: (29.128, 187.5)Temperatura (degC), Point: (29.99, 187.5)Temperatura (degC), Point: (0, 250)Temperatura (degC), Point: (15, 250)Temperatura (degC), Point: (25.641, 250)Temperatura (degC), Point: (27.821, 250)Temperatura (degC), Point: (29.128, 250)Temperatura (degC), Point: (29.99, 250)Temperatura (degC), Point: (0, 312.5)Temperatura (degC), Point: (15, 312.5)Temperatura (degC), Point: (25.641, 312.5)Temperatura (degC), Point: (27.821, 312.5)Temperatura (degC), Point: (29.128, 312.5)Temperatura (degC), Point: (29.99, 312.5)Temperatura (degC), Point: (0, 375)Temperatura (degC), Point: (15, 375)Temperatura (degC), Point: (25.641, 375)Temperatura (degC), Point: (27.821, 375)Temperatura (degC), Point: (29.128, 375)Temperatura (degC), Point: (29.99, 375)Temperatura (degC), Point: (0, 437.5)Temperatura (degC), Point: (15, 437.5)Temperatura (degC), Point: (25.641, 437.5)Temperatura (degC), Point: (27.821, 437.5)Temperatura (degC), Point: (29.128, 437.5)Temperatura (degC), Point: (29.99, 437.5)Temperatura (degC), Point: (0, 468.75)Temperatura (degC), Point: (15, 468.75)Temperatura (degC), Point: (25.641, 468.75)Temperatura (degC), Point: (27.821, 468.75)Temperatura (degC), Point: (29.128, 468.75)Temperatura (degC), Point: (29.99, 468.75)Temperatura (degC), Point: (0, 492.19)Temperatura (degC), Point: (15, 492.19)Temperatura (degC), Point: (25.641, 492.19)Temperatura (degC), Point: (27.821, 492.19)Temperatura (degC), Point: (29.128, 492.19)Temperatura (degC), Point: (29.99, 492.19)
20.000                   3.0000                   1.0000                   2000.0                   1000.0                   0.0000                   20.000                   20.000                   20.000                   20.000                   20.001                   20.045                   20.000                   20.000                   20.000                   20.000                   20.001                   20.045                   20.000                   20.000                   20.000                   20.000                   20.001                   20.045                   20.000                   20.000                   20.000                   20.000                   20.001                   20.045                   20.000                   20.000                   20.000                   20.000                   20.001                   20.045                   20.000                   20.000                   20.000                   20.000                   20.001                   20.045                   20.000                   20.000                   20.000                   20.000                   20.001                   20.045                   20.000                   20.000                   20.000                   20.000                   20.001                   20.044                   20.000                   20.000                   20.000                   20.000                   20.001                   20.039                   20.000                   20.000                   20.000                   20.000                   20.000                   20.026
20.000                   3.0000                   1.0000                   2000.0                   1000.0                   5.0000                   21.035                   23.598                   34.359                   38.667                   41.742                   43.305                   21.036                   23.614                   34.452                   38.791                   41.870                   43.433                   21.039                   23.630                   34.532                   38.894                   41.970                   43.534                   21.040                   23.635                   34.558                   38.927                   42.006                   43.572                   21.031                   23.588                   34.368                   38.686                   41.761                   43.326                   21.024                   23.559                   34.253                   38.569                   41.629                   43.190                   21.058                   23.692                   34.625                   38.955                   42.030                   43.591                   20.683                   22.362                   30.826                   34.721                   37.589                   39.082                   20.565                   22.036                   29.399                   32.695                   35.147                   36.440                   20.308                   21.158                   25.572                   27.476                   28.842                   29.609
20.000                   3.0000                   1.0000                   2000.0                   1000.0                   10.000                   25.804                   32.121                   48.810                   53.933                   57.311                   58.945                   25.807                   32.133                   48.815                   53.934                   57.274                   58.893                   25.817                   32.162                   48.899                   54.039                   57.373                   58.991                   25.823                   32.178                   48.943                   54.089                   57.426                   59.047                   25.825                   32.195                   49.149                   54.336                   57.693                   59.329                   25.775                   32.070                   48.781                   53.955                   57.318                   58.953                   25.850                   32.208                   48.868                   53.975                   57.323                   58.944                   24.642                   30.040                   45.987                   51.103                   54.332                   55.896                   23.781                   28.330                   41.691                   45.938                   48.648                   49.987                   22.655                   25.610                   33.350                   35.661                   37.154                   37.946
20.000                   3.0000                   1.0000                   2000.0                   1000.0                   15.000                   34.465                   42.924                   61.772                   67.118                   70.537                   72.171                   34.460                   42.906                   61.690                   67.029                   70.420                   72.044                   34.468                   42.920                   61.685                   67.012                   70.412                   72.038                   34.468                   42.919                   61.670                   66.985                   70.390                   72.019                   34.578                   43.163                   62.472                   67.937                   71.351                   72.987                   34.404                   42.824                   61.591                   66.954                   70.365                   72.000                   34.462                   42.891                   61.557                   66.851                   70.261                   71.889                   32.708                   40.637                   59.395                   64.746                   68.022                   69.591                   30.437                   37.147                   53.422                   58.079                   60.706                   62.020                   27.773                   32.085                   41.139                   43.562                   45.082                   45.877
20.000                   3.0000                   1.0000                   2000.0                   1000.0                   20.000                   44.449                   54.310                   74.391                   79.857                   83.301                   84.934                   44.435                   54.270                   74.275                   79.759                   83.178                   84.805                   44.436                   54.266                   74.208                   79.661                   83.109                   84.740                   44.432                   54.251                   74.159                   79.590                   83.030                   84.662                   44.691                   54.753                   75.476                   81.115                   84.564                   86.195                   44.353                   54.159                   74.079                   79.551                   82.984                   84.611                   44.376                   54.158                   73.988                   79.405                   82.850                   84.483                   42.247                   51.950                   72.388                   77.873                   81.174                   82.745                   38.372                   46.632                   64.852                   69.768                   72.324                   73.620                   34.004                   39.268                   49.111                   51.590                   53.125                   53.920
20.000                   3.0000                   1.0000                   2000.0                   1000.0                   25.000                   55.328                   66.033                   86.805                   92.348                   95.841                   97.480                   55.310                   65.987                   86.760                   92.373                   95.819                   97.451                   55.302                   65.967                   86.651                   92.228                   95.730                   97.369                   55.300                   65.956                   86.614                   92.156                   95.628                   97.265                   55.733                   66.711                   88.335                   94.121                   97.602                   99.232                   55.201                   65.845                   86.467                   92.033                   95.502                   97.132                   55.178                   65.783                   86.329                   91.852                   95.335                   96.976                   52.799                   63.629                   85.053                   90.627                   93.970                   95.547                   47.209                   56.460                   75.772                   80.820                   83.367                   84.658                   41.098                   46.982                   57.308                   59.818                   61.366                   62.162
20.000                   3.0000                   1.0000                   2000.0                   1000.0                   30.000                   67.460                   78.358                   99.493                   105.15                   108.71                   110.36                   67.393                   78.243                   99.322                   105.04                   108.55                   110.19                   67.401                   78.254                   99.288                   104.98                   108.54                   110.20                   67.438                   78.300                   99.370                   105.03                   108.57                   110.22                   67.962                   79.103                   100.93                   106.78                   110.34                   111.99                   67.267                   78.086                   99.018                   104.67                   108.21                   109.85                   67.199                   77.998                   98.929                   104.58                   108.13                   109.78                   64.495                   75.528                   97.220                   102.86                   106.27                   107.86                   57.213                   66.607                   85.939                   90.993                   93.617                   94.919                   49.755                   55.786                   66.293                   68.836                   70.400                   71.200
20.000                   3.0000                   1.0000                   2000.0                   1000.0                   35.000                   79.592                   90.684                   112.18                   117.95                   121.58                   123.25                   79.477                   90.499                   111.88                   117.70                   121.27                   122.94                   79.500                   90.540                   111.93                   117.72                   121.36                   123.03                   79.576                   90.644                   112.13                   117.91                   121.51                   123.17                   80.192                   91.496                   113.52                   119.44                   123.07                   124.74                   79.333                   90.327                   111.57                   117.32                   120.91                   122.57                   79.220                   90.213                   111.53                   117.31                   120.92                   122.59                   76.190                   87.427                   109.39                   115.09                   118.56                   120.17                   67.218                   76.755                   96.105                   101.17                   103.87                   105.18                   58.412                   64.590                   75.278                   77.854                   79.434                   80.237
20.000                   3.0000                   1.0000                   2000.0                   1000.0                   40.000                   91.790                   103.06                   124.91                   130.79                   134.48                   136.17                   91.619                   102.80                   124.48                   130.40                   134.03                   135.71                   91.668                   102.88                   124.62                   130.53                   134.24                   135.92                   91.801                   103.06                   124.96                   130.86                   134.54                   136.21                   92.479                   103.93                   126.19                   132.17                   135.88                   137.57                   91.469                   102.62                   124.17                   130.00                   133.67                   135.34                   91.318                   102.50                   124.21                   130.12                   133.79                   135.48                   87.912                   99.333                   121.60                   127.39                   130.92                   132.54                   77.293                   86.942                   106.33                   111.38                   114.15                   115.48                   67.228                   73.519                   84.348                   86.951                   88.546                   89.351
20.000                   3.0000                   1.0000                   2000.0                   1000.0                   45.000                   104.16                   115.56                   137.74                   143.73                   147.49                   149.19                   103.91                   115.20                   137.17                   143.17                   146.86                   148.55                   104.01                   115.36                   137.46                   143.49                   147.27                   148.97                   104.24                   115.67                   137.97                   144.01                   147.78                   149.47                   104.91                   116.48                   139.02                   145.10                   148.87                   150.58                   103.78                   115.06                   136.90                   142.81                   146.54                   148.22                   103.61                   114.95                   137.09                   143.13                   146.88                   148.59                   99.702                   111.26                   133.92                   139.83                   143.42                   145.05                   87.546                   97.232                   116.68                   121.71                   124.54                   125.87                   76.442                   82.761                   93.628                   96.246                   97.850                   98.656
20.000                   3.0000                   1.0000                   2000.0                   1000.0                   50.000                   116.52                   128.07                   150.58                   156.66                   160.49                   162.22                   116.19                   127.60                   149.85                   155.93                   159.69                   161.39                   116.35                   127.84                   150.31                   156.45                   160.31                   162.02                   116.68                   128.27                   150.99                   157.16                   161.02                   162.73                   117.35                   129.03                   151.85                   158.02                   161.86                   163.58                   116.09                   127.49                   149.63                   155.61                   159.41                   161.10                   115.90                   127.40                   149.97                   156.15                   159.98                   161.70                   111.49                   123.18                   146.23                   152.28                   155.93                   157.57                   97.799                   107.52                   127.04                   132.03                   134.93                   136.26                   85.656                   92.002                   102.91                   105.54                   107.15                   107.96
20.000                   3.0000                   1.0000                   2000.0                   1000.0                   55.000                   129.06                   140.77                   163.67                   169.86                   173.77                   175.51                   128.63                   140.17                   162.75                   168.93                   172.76                   174.48                   128.83                   140.48                   163.33                   169.58                   173.51                   175.23                   129.29                   141.06                   164.18                   170.46                   174.40                   176.13                   129.92                   141.75                   164.94                   171.23                   175.14                   176.88                   128.57                   140.14                   162.65                   168.75                   172.62                   174.33                   128.35                   140.03                   163.03                   169.34                   173.25                   174.99                   123.28                   135.12                   158.55                   164.70                   168.40                   170.05                   108.18                   117.98                   137.71                   142.71                   145.64                   146.96                   95.125                   101.50                   112.45                   115.10                   116.72                   117.53
20.000                   3.0000                   1.0000                   2000.0                   1000.0                   60.000                   141.73                   153.64                   176.97                   183.29                   187.28                   189.04                   141.18                   152.90                   175.85                   182.13                   186.03                   187.77                   141.44                   153.27                   176.50                   182.86                   186.84                   188.58                   142.03                   153.99                   177.50                   183.90                   187.89                   189.64                   142.60                   154.62                   178.25                   184.67                   188.66                   190.42                   141.20                   152.96                   175.92                   182.16                   186.12                   187.86                   140.94                   152.81                   176.24                   182.68                   186.68                   188.44                   135.06                   147.06                   170.86                   177.11                   180.84                   182.50                   118.67                   128.59                   148.65                   153.68                   156.62                   157.92                   104.81                   111.20                   122.21                   124.88                   126.51                   127.32
20.000                   3.0000                   1.0000                   2000.0                   1000.0                   65.000                   154.40                   166.51                   190.28                   196.72                   200.79                   202.57                   153.74                   165.63                   188.94                   195.33                   199.31                   201.06                   154.05                   166.06                   189.67                   196.13                   200.18                   201.92                   154.77                   166.93                   190.83                   197.33                   201.39                   203.15                   155.29                   167.49                   191.56                   198.10                   202.18                   203.95                   153.82                   165.78                   189.19                   195.57                   199.62                   201.38                   153.53                   165.60                   189.46                   196.02                   200.11                   201.88                   146.85                   159.01                   183.18                   189.51                   193.29                   194.95                   129.16                   139.20                   159.60                   164.65                   167.60                   168.88                   114.49                   120.91                   131.98                   134.67                   136.30                   137.11
20.000                   3.0000                   1.0000                   2000.0                   1000.0                   70.000                   167.07                   179.38                   203.58                   210.14                   214.30                   216.09                   166.30                   178.36                   202.03                   208.52                   212.59                   214.36                   166.66                   178.85                   202.84                   209.41                   213.51                   215.27                   167.52                   179.86                   204.15                   210.76                   214.88                   216.65                   167.97                   180.36                   204.87                   211.54                   215.70                   217.49                   166.45                   178.60                   202.46                   208.99                   213.13                   214.90                   166.11                   178.38                   202.67                   209.36                   213.54                   215.33                   158.63                   170.95                   195.49                   201.91                   205.73                   207.40                   139.65                   149.80                   170.54                   175.62                   178.58                   179.85                   124.18                   130.62                   141.74                   144.45                   146.09                   146.90
20.000                   3.0000                   1.0000                   2000.0                   1000.0                   75.000                   179.74                   192.25                   216.89                   223.57                   227.81                   229.62                   178.85                   191.08                   215.12                   221.72                   225.86                   227.65                   179.27                   191.64                   216.01                   222.68                   226.85                   228.62                   180.26                   192.80                   217.48                   224.19                   228.37                   230.16                   180.66                   193.23                   218.17                   224.98                   229.22                   231.03                   179.07                   191.42                   215.73                   222.40                   226.63                   228.43                   178.70                   191.16                   215.88                   222.70                   226.97                   228.78                   170.42                   182.89                   207.80                   214.31                   218.17                   219.85                   150.14                   160.41                   181.48                   186.59                   189.56                   190.81                   133.86                   140.32                   151.50                   154.23                   155.88                   156.69