% Model:              batchmodel_COIL_N_20_COIL_kr_1.5_COIL_kh_1_FUNZ_freq_10000_FUNZ_I_eff_1000.mph
% Version:            COMSOL 6.0.0.318
% Date:               Feb 9 2022, 00:32
% Table:              Tabella 1 - GRIGLIA_T
% COIL_N                 COIL_kr                  COIL_kh                  FUNZ_freq                FUNZ_I_eff               Time (s)                 Temperatura (degC), Point: (0, 0)Temperatura (degC), Point: (15, 0)Temperatura (degC), Point: (28.051, 0)Temperatura (degC), Point: (29.025, 0)Temperatura (degC), Point: (29.61, 0)Temperatura (degC), Point: (29.99, 0)Temperatura (degC), Point: (0, 62.5)Temperatura (degC), Point: (15, 62.5)Temperatura (degC), Point: (28.051, 62.5)Temperatura (degC), Point: (29.025, 62.5)Temperatura (degC), Point: (29.61, 62.5)Temperatura (degC), Point: (29.99, 62.5)Temperatura (degC), Point: (0, 125)Temperatura (degC), Point: (15, 125)Temperatura (degC), Point: (28.051, 125)Temperatura (degC), Point: (29.025, 125)Temperatura (degC), Point: (29.61, 125)Temperatura (degC), Point: (29.99, 125)Temperatura (degC), Point: (0, 187.5)Temperatura (degC), Point: (15, 187.5)Temperatura (degC), Point: (28.051, 187.5)Temperatura (degC), Point: (29.025, 187.5)Temperatura (degC), Point: (29.61, 187.5)Temperatura (degC), Point: (29.99, 187.5)Temperatura (degC), Point: (0, 250)Temperatura (degC), Point: (15, 250)Temperatura (degC), Point: (28.051, 250)Temperatura (degC), Point: (29.025, 250)Temperatura (degC), Point: (29.61, 250)Temperatura (degC), Point: (29.99, 250)Temperatura (degC), Point: (0, 312.5)Temperatura (degC), Point: (15, 312.5)Temperatura (degC), Point: (28.051, 312.5)Temperatura (degC), Point: (29.025, 312.5)Temperatura (degC), Point: (29.61, 312.5)Temperatura (degC), Point: (29.99, 312.5)Temperatura (degC), Point: (0, 375)Temperatura (degC), Point: (15, 375)Temperatura (degC), Point: (28.051, 375)Temperatura (degC), Point: (29.025, 375)Temperatura (degC), Point: (29.61, 375)Temperatura (degC), Point: (29.99, 375)Temperatura (degC), Point: (0, 437.5)Temperatura (degC), Point: (15, 437.5)Temperatura (degC), Point: (28.051, 437.5)Temperatura (degC), Point: (29.025, 437.5)Temperatura (degC), Point: (29.61, 437.5)Temperatura (degC), Point: (29.99, 437.5)Temperatura (degC), Point: (0, 468.75)Temperatura (degC), Point: (15, 468.75)Temperatura (degC), Point: (28.051, 468.75)Temperatura (degC), Point: (29.025, 468.75)Temperatura (degC), Point: (29.61, 468.75)Temperatura (degC), Point: (29.99, 468.75)Temperatura (degC), Point: (0, 492.19)Temperatura (degC), Point: (15, 492.19)Temperatura (degC), Point: (28.051, 492.19)Temperatura (degC), Point: (29.025, 492.19)Temperatura (degC), Point: (29.61, 492.19)Temperatura (degC), Point: (29.99, 492.19)
20.000                   1.5000                   1.0000                   10000                    1000.0                   0.0000                   20.000                   20.000                   20.000                   20.000                   20.011                   20.173                   20.000                   20.000                   20.000                   20.000                   20.013                   20.192                   20.000                   20.000                   20.000                   20.000                   20.018                   20.222                   20.000                   20.000                   20.000                   20.000                   20.017                   20.216                   20.000                   20.000                   20.000                   20.000                   20.012                   20.183                   20.000                   20.000                   20.000                   20.000                   20.011                   20.174                   20.000                   20.000                   20.000                   20.000                   20.015                   20.202                   20.000                   20.000                   20.000                   20.000                   20.019                   20.225                   20.000                   20.000                   20.000                   20.000                   20.011                   20.176                   20.000                   20.000                   20.000                   20.000                   20.016                   20.208
20.000                   1.5000                   1.0000                   10000                    1000.0                   5.0000                   21.435                   26.220                   62.793                   68.067                   71.374                   72.941                   21.684                   27.548                   68.429                   74.250                   77.917                   79.643                   22.054                   29.524                   77.414                   84.198                   88.518                   90.510                   21.942                   28.978                   75.538                   82.194                   86.426                   88.374                   21.562                   26.968                   65.529                   70.965                   74.355                   75.950                   21.446                   26.319                   62.868                   68.130                   71.444                   73.027                   21.778                   28.132                   71.084                   77.177                   81.058                   82.874                   21.999                   29.400                   77.483                   84.318                   88.666                   90.666                   21.405                   26.339                   63.796                   69.318                   72.803                   74.421                   21.153                   27.539                   70.856                   76.999                   80.910                   82.745
20.000                   1.5000                   1.0000                   10000                    1000.0                   10.000                   33.194                   48.627                   102.50                   108.26                   111.79                   113.43                   33.836                   50.229                   107.28                   113.57                   117.47                   119.24                   34.812                   52.739                   116.08                   123.42                   128.03                   130.09                   34.500                   52.067                   114.31                   121.47                   125.96                   127.97                   33.392                   49.206                   103.90                   109.73                   113.26                   114.87                   33.110                   48.433                   101.47                   107.17                   110.70                   112.34                   34.087                   51.006                   110.61                   117.35                   121.50                   123.39                   34.618                   52.521                   116.15                   123.53                   128.17                   130.24                   32.882                   48.241                   102.44                   108.47                   112.24                   113.95                   34.056                   51.670                   110.47                   117.04                   121.15                   123.03
20.000                   1.5000                   1.0000                   10000                    1000.0                   15.000                   53.896                   76.405                   138.27                   144.46                   148.25                   149.96                   54.626                   77.806                   142.79                   149.52                   153.67                   155.51                   55.881                   80.353                   151.76                   159.57                   164.45                   166.58                   55.412                   79.579                   149.74                   157.34                   162.06                   164.12                   53.872                   76.469                   139.01                   145.25                   149.00                   150.66                   53.567                   75.795                   136.88                   143.04                   146.84                   148.56                   55.011                   78.749                   146.75                   153.95                   158.31                   160.30                   55.594                   80.143                   152.12                   160.03                   164.97                   167.12                   53.125                   75.331                   137.11                   143.47                   147.41                   149.17                   55.460                   79.622                   145.63                   152.54                   156.86                   158.77
20.000                   1.5000                   1.0000                   10000                    1000.0                   20.000                   80.371                   106.50                   172.81                   179.38                   183.40                   185.19                   81.016                   107.74                   177.98                   185.22                   189.69                   191.61                   82.302                   110.19                   186.75                   195.01                   200.15                   202.34                   81.695                   109.28                   184.55                   192.59                   197.55                   199.67                   79.988                   106.15                   174.09                   180.94                   185.13                   186.96                   79.750                   105.58                   171.78                   178.44                   182.54                   184.34                   81.537                   108.87                   182.15                   189.79                   194.35                   196.45                   81.973                   110.02                   187.37                   195.75                   200.97                   203.19                   79.074                   104.78                   171.02                   177.73                   181.85                   183.64                   81.986                   109.22                   179.21                   186.43                   190.93                   192.89
20.000                   1.5000                   1.0000                   10000                    1000.0                   25.000                   110.59                   138.11                   207.80                   214.77                   219.06                   220.91                   111.22                   139.51                   213.98                   221.75                   226.55                   228.55                   112.38                   141.80                   222.53                   231.29                   236.73                   238.99                   111.80                   141.00                   220.68                   229.26                   234.55                   236.76                   110.02                   137.73                   209.59                   216.82                   221.23                   223.15                   109.82                   137.15                   207.02                   214.06                   218.40                   220.27                   111.84                   140.70                   217.92                   226.07                   230.93                   233.11                   112.05                   141.67                   223.26                   232.14                   237.67                   239.96                   108.76                   135.82                   205.33                   212.36                   216.66                   218.47                   111.61                   140.00                   212.82                   220.36                   225.05                   227.05
20.000                   1.5000                   1.0000                   10000                    1000.0                   30.000                   141.14                   169.91                   242.97                   250.35                   254.90                   256.81                   141.77                   171.43                   249.91                   258.16                   263.25                   265.33                   142.83                   173.65                   258.54                   267.80                   273.56                   275.89                   142.31                   172.98                   257.00                   266.10                   271.72                   273.99                   140.43                   169.54                   245.18                   252.78                   257.38                   259.36                   140.27                   168.95                   242.48                   249.93                   254.52                   256.46                   142.50                   172.75                   253.89                   262.55                   267.73                   270.00                   142.48                   173.50                   259.20                   268.59                   274.42                   276.78                   138.81                   167.12                   240.13                   247.55                   252.08                   253.94                   141.50                   170.92                   246.59                   254.46                   259.35                   261.39
20.000                   1.5000                   1.0000                   10000                    1000.0                   35.000                   172.18                   201.98                   278.45                   286.25                   291.05                   293.03                   172.80                   203.57                   285.68                   294.34                   299.68                   301.81                   173.84                   205.85                   294.90                   304.69                   310.76                   313.16                   173.43                   205.37                   293.59                   303.19                   309.12                   311.46                   171.43                   201.71                   280.94                   288.87                   293.61                   295.63                   171.27                   201.08                   278.31                   286.21                   291.10                   293.11                   173.70                   205.13                   290.16                   299.35                   304.91                   307.25                   173.43                   205.61                   295.22                   305.09                   311.22                   313.64                   169.41                   198.82                   275.77                   283.69                   288.53                   290.46                   171.78                   202.09                   280.64                   288.85                   293.96                   296.04
20.000                   1.5000                   1.0000                   10000                    1000.0                   40.000                   202.93                   233.67                   313.21                   321.41                   326.46                   328.49                   203.64                   235.44                   320.96                   330.00                   335.57                   337.75                   204.84                   238.05                   331.33                   341.66                   348.05                   350.51                   204.47                   237.63                   329.99                   340.08                   346.31                   348.70                   202.34                   233.73                   316.53                   324.87                   329.78                   331.82                   202.21                   233.08                   313.80                   322.12                   327.27                   329.33                   204.79                   237.35                   326.18                   335.87                   341.81                   344.21                   204.26                   237.58                   331.14                   341.50                   347.93                   350.40                   200.07                   230.63                   311.54                   319.95                   325.09                   327.10                   202.06                   233.31                   314.91                   323.49                   328.81                   330.94
20.000                   1.5000                   1.0000                   10000                    1000.0                   45.000                   233.59                   265.23                   347.75                   356.32                   361.62                   363.70                   234.41                   267.22                   356.08                   365.50                   371.30                   373.51                   235.84                   270.24                   367.78                   378.65                   385.37                   387.88                   235.49                   269.85                   366.31                   376.91                   383.44                   385.87                   233.23                   265.70                   352.08                   360.83                   365.92                   367.98                   233.12                   265.04                   349.19                   357.90                   363.30                   365.41                   235.84                   269.52                   362.11                   372.29                   378.62                   381.06                   235.05                   269.49                   367.02                   377.88                   384.61                   387.13                   230.74                   262.47                   347.35                   356.24                   361.70                   363.76                   232.34                   264.56                   349.26                   358.21                   363.75                   365.91
20.000                   1.5000                   1.0000                   10000                    1000.0                   50.000                   264.24                   296.79                   382.28                   391.24                   396.79                   398.92                   265.18                   299.01                   391.20                   400.99                   407.02                   409.27                   266.84                   302.43                   404.23                   415.64                   422.69                   425.25                   266.51                   302.07                   402.64                   413.73                   420.56                   423.04                   264.11                   297.67                   387.63                   396.80                   402.06                   404.14                   264.03                   297.00                   384.57                   393.68                   399.34                   401.49                   266.89                   301.69                   398.05                   408.72                   415.42                   417.92                   265.84                   301.40                   402.90                   414.26                   421.29                   423.85                   261.42                   294.30                   383.16                   392.54                   398.30                   400.43                   262.61                   295.80                   383.61                   392.93                   398.69                   400.89
20.000                   1.5000                   1.0000                   10000                    1000.0                   55.000                   294.11                   327.60                   416.17                   425.50                   431.28                   433.45                   295.23                   330.12                   425.93                   436.16                   442.45                   444.73                   297.08                   333.87                   439.80                   451.73                   459.08                   461.69                   296.76                   333.52                   438.22                   449.82                   456.95                   459.47                   294.28                   328.95                   422.58                   432.22                   437.69                   439.78                   294.17                   328.20                   419.25                   428.77                   434.67                   436.85                   296.85                   332.62                   432.15                   443.18                   450.13                   452.65                   295.86                   332.54                   437.98                   449.83                   457.15                   459.75                   291.35                   325.38                   418.09                   427.94                   433.98                   436.14                   292.17                   326.32                   417.15                   426.83                   432.81                   435.03
20.000                   1.5000                   1.0000                   10000                    1000.0                   60.000                   323.24                   357.73                   449.46                   459.14                   465.16                   467.35                   324.59                   360.60                   460.29                   471.03                   477.61                   479.92                   326.63                   364.60                   474.54                   486.96                   494.61                   497.25                   326.29                   364.25                   473.12                   485.23                   492.67                   495.22                   323.78                   359.58                   456.99                   467.15                   472.84                   474.93                   323.60                   358.71                   453.28                   463.21                   469.35                   471.55                   325.79                   362.41                   464.54                   475.80                   482.89                   485.37                   325.14                   362.96                   472.32                   484.65                   492.25                   494.88                   320.59                   355.74                   452.17                   462.48                   468.79                   470.98                   321.04                   356.15                   449.94                   459.97                   466.15                   468.39
20.000                   1.5000                   1.0000                   10000                    1000.0                   65.000                   352.38                   387.85                   482.75                   492.79                   499.03                   501.25                   353.96                   391.08                   494.65                   505.90                   512.76                   515.10                   356.17                   395.32                   509.28                   522.19                   530.13                   532.82                   355.82                   394.99                   508.01                   520.64                   528.38                   530.97                   353.28                   390.22                   491.39                   502.07                   507.99                   510.08                   353.02                   389.21                   487.30                   497.65                   504.03                   506.25                   354.74                   392.20                   496.93                   508.43                   515.64                   518.10                   354.43                   393.38                   506.66                   519.47                   527.35                   530.01                   349.82                   386.10                   486.26                   497.03                   503.61                   505.82                   349.92                   385.99                   482.74                   493.11                   499.49                   501.76
20.000                   1.5000                   1.0000                   10000                    1000.0                   70.000                   381.51                   417.98                   516.04                   526.44                   532.90                   535.14                   383.33                   421.56                   529.01                   540.77                   547.92                   550.28                   385.71                   426.05                   544.02                   557.42                   565.66                   568.38                   385.36                   425.72                   542.91                   556.06                   564.10                   566.72                   382.77                   420.85                   525.80                   536.99                   543.14                   545.22                   382.45                   419.71                   521.33                   532.09                   538.70                   540.95                   383.68                   421.99                   529.32                   541.06                   548.39                   550.83                   383.71                   423.80                   541.01                   554.30                   562.44                   565.14                   379.06                   416.47                   520.35                   531.58                   538.42                   540.65                   378.79                   415.82                   515.53                   526.26                   532.84                   535.12
20.000                   1.5000                   1.0000                   10000                    1000.0                   75.000                   410.64                   448.10                   549.33                   560.08                   566.77                   569.04                   412.70                   452.04                   563.38                   575.64                   583.08                   585.46                   415.26                   456.78                   578.76                   592.66                   601.18                   603.95                   414.89                   456.46                   577.80                   591.47                   599.81                   602.47                   412.27                   451.49                   560.20                   571.91                   578.29                   580.37                   411.87                   450.21                   555.35                   566.53                   573.38                   575.65                   412.63                   451.78                   561.71                   573.68                   581.14                   583.56                   413.00                   454.22                   575.35                   589.12                   597.54                   600.26                   408.30                   446.83                   554.44                   566.13                   573.24                   575.49                   407.67                   445.66                   548.33                   559.40                   566.18                   568.48