% Model:              batchmodel_COIL_N_20_COIL_kr_2.25_COIL_kh_1.5_FUNZ_freq_6000_FUNZ_I_eff_1000.mph
% Version:            COMSOL 6.0.0.318
% Date:               Feb 9 2022, 02:14
% Table:              Tabella 1 - GRIGLIA_T
% COIL_N                 COIL_kr                  COIL_kh                  FUNZ_freq                FUNZ_I_eff               Time (s)                 Temperatura (degC), Point: (0, 0)Temperatura (degC), Point: (15, 0)Temperatura (degC), Point: (27.483, 0)Temperatura (degC), Point: (28.742, 0)Temperatura (degC), Point: (29.497, 0)Temperatura (degC), Point: (29.99, 0)Temperatura (degC), Point: (0, 62.5)Temperatura (degC), Point: (15, 62.5)Temperatura (degC), Point: (27.483, 62.5)Temperatura (degC), Point: (28.742, 62.5)Temperatura (degC), Point: (29.497, 62.5)Temperatura (degC), Point: (29.99, 62.5)Temperatura (degC), Point: (0, 125)Temperatura (degC), Point: (15, 125)Temperatura (degC), Point: (27.483, 125)Temperatura (degC), Point: (28.742, 125)Temperatura (degC), Point: (29.497, 125)Temperatura (degC), Point: (29.99, 125)Temperatura (degC), Point: (0, 187.5)Temperatura (degC), Point: (15, 187.5)Temperatura (degC), Point: (27.483, 187.5)Temperatura (degC), Point: (28.742, 187.5)Temperatura (degC), Point: (29.497, 187.5)Temperatura (degC), Point: (29.99, 187.5)Temperatura (degC), Point: (0, 250)Temperatura (degC), Point: (15, 250)Temperatura (degC), Point: (27.483, 250)Temperatura (degC), Point: (28.742, 250)Temperatura (degC), Point: (29.497, 250)Temperatura (degC), Point: (29.99, 250)Temperatura (degC), Point: (0, 312.5)Temperatura (degC), Point: (15, 312.5)Temperatura (degC), Point: (27.483, 312.5)Temperatura (degC), Point: (28.742, 312.5)Temperatura (degC), Point: (29.497, 312.5)Temperatura (degC), Point: (29.99, 312.5)Temperatura (degC), Point: (0, 375)Temperatura (degC), Point: (15, 375)Temperatura (degC), Point: (27.483, 375)Temperatura (degC), Point: (28.742, 375)Temperatura (degC), Point: (29.497, 375)Temperatura (degC), Point: (29.99, 375)Temperatura (degC), Point: (0, 437.5)Temperatura (degC), Point: (15, 437.5)Temperatura (degC), Point: (27.483, 437.5)Temperatura (degC), Point: (28.742, 437.5)Temperatura (degC), Point: (29.497, 437.5)Temperatura (degC), Point: (29.99, 437.5)Temperatura (degC), Point: (0, 468.75)Temperatura (degC), Point: (15, 468.75)Temperatura (degC), Point: (27.483, 468.75)Temperatura (degC), Point: (28.742, 468.75)Temperatura (degC), Point: (29.497, 468.75)Temperatura (degC), Point: (29.99, 468.75)Temperatura (degC), Point: (0, 492.19)Temperatura (degC), Point: (15, 492.19)Temperatura (degC), Point: (27.483, 492.19)Temperatura (degC), Point: (28.742, 492.19)Temperatura (degC), Point: (29.497, 492.19)Temperatura (degC), Point: (29.99, 492.19)
20.000                   2.2500                   1.5000                   6000.0                   1000.0                   0.0000                   20.000                   20.000                   20.000                   20.000                   20.006                   20.124                   20.000                   20.000                   20.000                   20.000                   20.006                   20.124                   20.000                   20.000                   20.000                   20.000                   20.006                   20.125                   20.000                   20.000                   20.000                   20.000                   20.006                   20.125                   20.000                   20.000                   20.000                   20.000                   20.006                   20.124                   20.000                   20.000                   20.000                   20.000                   20.006                   20.124                   20.000                   20.000                   20.000                   20.000                   20.006                   20.125                   20.000                   20.000                   20.000                   20.000                   20.006                   20.125                   20.000                   20.000                   20.000                   20.000                   20.006                   20.120                   20.000                   20.000                   20.000                   20.000                   20.003                   20.092
20.000                   2.2500                   1.5000                   6000.0                   1000.0                   5.0000                   21.889                   28.431                   62.251                   68.120                   71.806                   73.538                   21.876                   28.315                   61.199                   66.950                   70.602                   72.331                   21.883                   28.345                   61.283                   67.056                   70.727                   72.465                   21.871                   28.262                   60.551                   66.212                   69.837                   71.564                   21.888                   28.416                   62.119                   67.985                   71.674                   73.408                   21.865                   28.302                   61.569                   67.388                   71.060                   72.791                   21.883                   28.328                   60.957                   66.658                   70.294                   72.024                   21.801                   27.937                   59.036                   64.591                   68.176                   69.895                   21.647                   27.285                   56.322                   61.553                   64.927                   66.559                   21.725                   26.819                   50.280                   54.197                   56.645                   57.855
20.000                   2.2500                   1.5000                   6000.0                   1000.0                   10.000                   31.935                   44.261                   77.586                   82.482                   85.654                   87.166                   31.786                   43.972                   77.279                   82.183                   85.394                   86.924                   31.749                   43.915                   77.890                   83.007                   86.350                   87.907                   31.823                   44.129                   78.648                   83.892                   87.359                   88.981                   31.908                   44.199                   77.443                   82.340                   85.481                   87.028                   31.737                   43.830                   76.309                   81.024                   84.074                   85.565                   31.782                   43.976                   78.063                   83.287                   86.823                   88.472                   31.297                   43.165                   77.209                   82.388                   85.788                   87.382                   30.202                   40.766                   70.708                   75.369                   78.478                   79.968                   29.401                   38.091                   60.353                   63.546                   65.713                   66.794
20.000                   2.2500                   1.5000                   6000.0                   1000.0                   15.000                   47.435                   63.356                   107.86                   114.54                   118.69                   120.58                   47.014                   62.568                   104.85                   110.97                   114.73                   116.55                   46.730                   61.958                   102.46                   108.28                   112.02                   113.71                   47.126                   62.671                   103.76                   109.44                   112.89                   114.60                   47.356                   63.322                   108.85                   115.89                   120.16                   122.05                   46.942                   62.564                   106.93                   113.86                   118.30                   120.36                   46.868                   62.191                   102.90                   108.58                   112.04                   113.83                   45.823                   60.718                   100.31                   105.95                   109.57                   111.38                   43.118                   56.201                   90.853                   95.780                   98.677                   100.12                   41.058                   52.425                   82.012                   86.300                   88.630                   89.775
20.000                   2.2500                   1.5000                   6000.0                   1000.0                   20.000                   66.139                   83.976                   127.99                   134.04                   137.83                   139.53                   65.600                   83.487                   128.87                   135.26                   139.26                   141.02                   65.019                   82.593                   127.61                   134.01                   138.01                   139.80                   65.750                   83.707                   130.06                   136.69                   140.81                   142.62                   66.112                   84.132                   128.73                   134.86                   138.65                   140.36                   65.459                   83.262                   127.52                   133.55                   137.28                   138.95                   65.241                   82.956                   128.58                   135.09                   139.16                   140.95                   63.428                   80.625                   125.27                   131.73                   135.77                   137.56                   59.021                   74.756                   117.22                   123.47                   127.40                   129.15                   55.878                   69.526                   101.86                   106.09                   108.64                   109.82
20.000                   2.2500                   1.5000                   6000.0                   1000.0                   25.000                   86.659                   105.70                   153.45                   160.18                   164.39                   166.26                   86.222                   105.43                   153.56                   160.31                   164.53                   166.41                   85.454                   104.48                   152.49                   159.25                   163.48                   165.36                   86.407                   105.70                   154.02                   160.79                   165.02                   166.90                   86.667                   105.81                   153.72                   160.46                   164.67                   166.54                   85.961                   105.05                   152.93                   159.67                   163.88                   165.75                   85.727                   104.86                   152.98                   159.74                   163.97                   165.84                   83.201                   101.96                   149.47                   156.17                   160.38                   162.25                   77.348                   94.718                   138.77                   144.97                   148.85                   150.61                   72.645                   87.121                   120.04                   124.32                   126.98                   128.25
20.000                   2.2500                   1.5000                   6000.0                   1000.0                   30.000                   108.16                   128.23                   178.57                   185.61                   190.00                   191.91                   107.79                   127.99                   178.36                   185.40                   189.79                   191.70                   106.93                   127.05                   177.43                   184.49                   188.89                   190.81                   107.98                   128.24                   178.59                   185.62                   190.01                   191.93                   108.16                   128.27                   178.61                   185.66                   190.05                   191.96                   107.46                   127.58                   177.94                   184.99                   189.38                   191.29                   107.20                   127.38                   177.72                   184.76                   189.15                   191.07                   104.03                   123.92                   173.76                   180.75                   185.11                   187.03                   96.632                   114.97                   160.64                   167.03                   171.03                   172.82                   90.244                   105.18                   138.78                   143.16                   145.88                   147.16
20.000                   2.2500                   1.5000                   6000.0                   1000.0                   35.000                   130.12                   151.14                   203.68                   211.00                   215.55                   217.50                   129.78                   150.88                   203.31                   210.62                   215.17                   217.13                   128.88                   149.96                   202.51                   209.84                   214.41                   216.38                   129.95                   151.09                   203.45                   210.75                   215.31                   217.27                   130.09                   151.10                   203.58                   210.90                   215.45                   217.40                   129.41                   150.45                   202.95                   210.27                   214.83                   216.78                   129.13                   150.23                   202.66                   209.97                   214.53                   216.49                   125.32                   146.17                   198.12                   205.37                   209.90                   211.85                   116.30                   135.39                   182.64                   189.24                   193.37                   195.19                   108.22                   123.51                   157.82                   162.28                   165.06                   166.35
20.000                   2.2500                   1.5000                   6000.0                   1000.0                   40.000                   152.73                   174.59                   229.24                   236.86                   241.59                   243.58                   152.39                   174.31                   228.81                   236.41                   241.15                   243.15                   151.50                   173.44                   228.12                   235.75                   240.51                   242.51                   152.56                   174.50                   228.92                   236.53                   241.28                   243.28                   152.67                   174.51                   229.07                   236.69                   241.42                   243.41                   152.00                   173.88                   228.46                   236.07                   240.81                   242.80                   151.69                   173.63                   228.16                   235.77                   240.52                   242.52                   147.16                   168.83                   222.81                   230.35                   235.05                   237.04                   136.44                   156.14                   204.95                   211.78                   216.05                   217.90                   126.81                   142.40                   177.44                   182.00                   184.83                   186.13
20.000                   2.2500                   1.5000                   6000.0                   1000.0                   45.000                   175.62                   198.29                   255.01                   262.92                   267.85                   269.88                   175.27                   197.97                   254.55                   262.46                   267.39                   269.43                   174.42                   197.17                   253.96                   261.90                   266.86                   268.90                   175.43                   198.15                   254.67                   262.59                   267.53                   269.58                   175.53                   198.17                   254.80                   262.72                   267.64                   269.67                   174.88                   197.55                   254.18                   262.09                   267.01                   269.05                   174.54                   197.27                   253.90                   261.83                   266.77                   268.81                   169.24                   191.68                   247.64                   255.47                   260.36                   262.39                   156.79                   177.04                   227.39                   234.46                   238.87                   240.76                   145.66                   161.54                   197.32                   201.97                   204.86                   206.18
20.000                   2.2500                   1.5000                   6000.0                   1000.0                   50.000                   198.51                   221.99                   280.78                   288.99                   294.10                   296.18                   198.16                   221.64                   280.29                   288.51                   293.63                   295.72                   197.34                   220.90                   279.80                   288.06                   293.20                   295.29                   198.30                   221.79                   280.42                   288.66                   293.79                   295.88                   198.39                   221.83                   280.53                   288.75                   293.86                   295.93                   197.76                   221.22                   279.90                   288.11                   293.22                   295.29                   197.39                   220.90                   279.64                   287.88                   293.02                   295.10                   191.32                   214.52                   272.48                   280.60                   285.67                   287.74                   177.13                   197.94                   249.84                   257.14                   261.70                   263.62                   164.50                   180.69                   217.19                   221.94                   224.89                   226.22
20.000                   2.2500                   1.5000                   6000.0                   1000.0                   55.000                   221.42                   245.71                   306.58                   315.10                   320.40                   322.52                   221.07                   245.33                   306.08                   314.61                   319.92                   322.05                   220.28                   244.65                   305.69                   314.26                   319.59                   321.72                   221.20                   245.47                   306.22                   314.77                   320.10                   322.23                   221.28                   245.52                   306.30                   314.82                   320.12                   322.24                   220.67                   244.92                   305.66                   314.17                   319.47                   321.59                   220.26                   244.57                   305.43                   313.98                   319.31                   321.44                   213.42                   237.38                   297.34                   305.76                   311.01                   313.12                   197.50                   218.86                   272.31                   279.84                   284.55                   286.50                   183.38                   199.85                   237.10                   241.94                   244.95                   246.29
20.000                   2.2500                   1.5000                   6000.0                   1000.0                   60.000                   244.92                   270.07                   333.42                   342.34                   347.88                   350.04                   244.56                   269.68                   332.97                   341.90                   347.46                   349.62                   243.85                   269.07                   332.63                   341.60                   347.18                   349.36                   244.68                   269.81                   333.13                   342.08                   347.66                   349.83                   244.77                   269.88                   333.16                   342.08                   347.62                   349.78                   244.17                   269.28                   332.53                   341.44                   346.97                   349.14                   243.71                   268.87                   332.26                   341.22                   346.79                   348.97                   235.94                   260.68                   322.98                   331.78                   337.26                   339.41                   218.23                   240.17                   295.43                   303.25                   308.14                   310.12                   202.80                   219.61                   257.71                   262.68                   265.75                   267.11
20.000                   2.2500                   1.5000                   6000.0                   1000.0                   65.000                   268.42                   294.43                   360.26                   369.57                   375.35                   377.56                   268.06                   294.04                   359.85                   369.19                   374.99                   377.20                   267.41                   293.48                   359.57                   368.95                   374.77                   377.00                   268.17                   294.16                   360.04                   369.39                   375.21                   377.44                   268.26                   294.23                   360.02                   369.33                   375.11                   377.32                   267.68                   293.65                   359.39                   368.70                   374.48                   376.69                   267.16                   293.18                   359.10                   368.45                   374.27                   376.49                   258.47                   283.99                   348.63                   357.80                   363.51                   365.71                   238.96                   261.48                   318.55                   326.66                   331.73                   333.75                   222.22                   239.36                   278.33                   283.41                   286.56                   287.93
20.000                   2.2500                   1.5000                   6000.0                   1000.0                   70.000                   291.93                   318.79                   387.10                   396.80                   402.82                   405.08                   291.55                   318.39                   386.74                   396.48                   402.52                   404.78                   290.97                   317.89                   386.52                   396.29                   402.36                   404.63                   291.66                   318.51                   386.95                   396.71                   402.77                   405.04                   291.76                   318.59                   386.87                   396.58                   402.61                   404.86                   291.19                   318.01                   386.25                   395.96                   401.98                   404.24                   290.62                   317.48                   385.93                   395.69                   401.74                   404.01                   281.00                   307.30                   374.28                   383.82                   389.76                   392.00                   259.69                   282.80                   341.66                   350.07                   355.31                   357.37                   241.64                   259.12                   298.94                   304.14                   307.36                   308.74
20.000                   2.2500                   1.5000                   6000.0                   1000.0                   75.000                   315.40                   343.12                   413.99                   424.10                   430.36                   432.66                   315.02                   342.73                   413.67                   423.82                   430.11                   432.41                   314.49                   342.29                   413.49                   423.68                   429.99                   432.30                   315.12                   342.84                   413.89                   424.06                   430.37                   432.68                   315.22                   342.93                   413.78                   423.90                   430.17                   432.46                   314.67                   342.36                   413.18                   423.29                   429.56                   431.85                   314.04                   341.77                   412.80                   422.96                   429.26                   431.57                   303.49                   330.60                   399.97                   409.90                   416.06                   418.34                   280.44                   304.18                   364.97                   373.68                   379.10                   381.19                   261.13                   278.98                   319.74                   325.06                   328.36                   329.76