% Model:              batchmodel_COIL_N_20_COIL_kr_2.25_COIL_kh_2_FUNZ_freq_6000_FUNZ_I_eff_2500.mph
% Version:            COMSOL 6.0.0.318
% Date:               Feb 9 2022, 03:03
% Table:              Tabella 1 - GRIGLIA_T
% COIL_N                 COIL_kr                  COIL_kh                  FUNZ_freq                FUNZ_I_eff               Time (s)                 Temperatura (degC), Point: (0, 0)Temperatura (degC), Point: (15, 0)Temperatura (degC), Point: (27.483, 0)Temperatura (degC), Point: (28.742, 0)Temperatura (degC), Point: (29.497, 0)Temperatura (degC), Point: (29.99, 0)Temperatura (degC), Point: (0, 62.5)Temperatura (degC), Point: (15, 62.5)Temperatura (degC), Point: (27.483, 62.5)Temperatura (degC), Point: (28.742, 62.5)Temperatura (degC), Point: (29.497, 62.5)Temperatura (degC), Point: (29.99, 62.5)Temperatura (degC), Point: (0, 125)Temperatura (degC), Point: (15, 125)Temperatura (degC), Point: (27.483, 125)Temperatura (degC), Point: (28.742, 125)Temperatura (degC), Point: (29.497, 125)Temperatura (degC), Point: (29.99, 125)Temperatura (degC), Point: (0, 187.5)Temperatura (degC), Point: (15, 187.5)Temperatura (degC), Point: (27.483, 187.5)Temperatura (degC), Point: (28.742, 187.5)Temperatura (degC), Point: (29.497, 187.5)Temperatura (degC), Point: (29.99, 187.5)Temperatura (degC), Point: (0, 250)Temperatura (degC), Point: (15, 250)Temperatura (degC), Point: (27.483, 250)Temperatura (degC), Point: (28.742, 250)Temperatura (degC), Point: (29.497, 250)Temperatura (degC), Point: (29.99, 250)Temperatura (degC), Point: (0, 312.5)Temperatura (degC), Point: (15, 312.5)Temperatura (degC), Point: (27.483, 312.5)Temperatura (degC), Point: (28.742, 312.5)Temperatura (degC), Point: (29.497, 312.5)Temperatura (degC), Point: (29.99, 312.5)Temperatura (degC), Point: (0, 375)Temperatura (degC), Point: (15, 375)Temperatura (degC), Point: (27.483, 375)Temperatura (degC), Point: (28.742, 375)Temperatura (degC), Point: (29.497, 375)Temperatura (degC), Point: (29.99, 375)Temperatura (degC), Point: (0, 437.5)Temperatura (degC), Point: (15, 437.5)Temperatura (degC), Point: (27.483, 437.5)Temperatura (degC), Point: (28.742, 437.5)Temperatura (degC), Point: (29.497, 437.5)Temperatura (degC), Point: (29.99, 437.5)Temperatura (degC), Point: (0, 468.75)Temperatura (degC), Point: (15, 468.75)Temperatura (degC), Point: (27.483, 468.75)Temperatura (degC), Point: (28.742, 468.75)Temperatura (degC), Point: (29.497, 468.75)Temperatura (degC), Point: (29.99, 468.75)Temperatura (degC), Point: (0, 492.19)Temperatura (degC), Point: (15, 492.19)Temperatura (degC), Point: (27.483, 492.19)Temperatura (degC), Point: (28.742, 492.19)Temperatura (degC), Point: (29.497, 492.19)Temperatura (degC), Point: (29.99, 492.19)
20.000                   2.2500                   2.0000                   6000.0                   2500.0                   0.0000                   20.000                   20.000                   20.000                   20.000                   20.079                   20.376                   20.000                   20.000                   20.000                   20.000                   20.079                   20.377                   20.000                   20.000                   20.000                   20.000                   20.079                   20.377                   20.000                   20.000                   20.000                   20.000                   20.079                   20.377                   20.000                   20.000                   20.000                   20.000                   20.079                   20.376                   20.000                   20.000                   20.000                   20.000                   20.079                   20.376                   20.000                   20.000                   20.000                   20.000                   20.079                   20.377                   20.000                   20.000                   20.000                   20.000                   20.079                   20.377                   20.000                   20.000                   20.000                   20.000                   20.075                   20.367                   20.000                   20.000                   20.000                   20.000                   20.056                   20.310
20.000                   2.2500                   2.0000                   6000.0                   2500.0                   5.0000                   28.173                   56.752                   215.61                   247.28                   267.73                   274.65                   28.218                   57.058                   217.17                   248.53                   267.69                   274.69                   28.287                   57.448                   220.34                   251.71                   270.48                   277.38                   28.196                   56.871                   215.13                   246.07                   265.51                   272.43                   28.151                   56.666                   214.81                   246.22                   266.61                   273.57                   28.212                   56.966                   215.68                   246.48                   265.86                   272.54                   28.259                   57.361                   221.00                   252.95                   273.02                   280.32                   28.112                   56.542                   212.96                   243.23                   262.17                   269.02                   27.839                   55.157                   205.96                   234.70                   252.80                   259.25                   34.973                   59.442                   185.26                   207.55                   221.21                   226.21
20.000                   2.2500                   2.0000                   6000.0                   2500.0                   10.000                   77.265                   143.76                   374.08                   415.49                   440.33                   447.98                   77.676                   144.70                   378.90                   421.54                   446.91                   454.51                   78.055                   145.37                   378.20                   419.85                   444.96                   452.72                   77.483                   144.16                   376.74                   418.94                   444.17                   451.90                   77.245                   143.72                   375.32                   417.14                   442.16                   449.85                   77.530                   144.27                   376.07                   417.99                   442.70                   450.34                   77.828                   144.95                   376.99                   418.59                   443.53                   451.24                   76.808                   142.75                   371.09                   412.29                   436.94                   444.49                   74.731                   137.26                   350.86                   388.29                   410.58                   417.59                   83.898                   137.51                   303.81                   329.62                   344.96                   350.29
20.000                   2.2500                   2.0000                   6000.0                   2500.0                   15.000                   156.76                   244.24                   532.86                   585.30                   614.61                   622.83                   157.45                   245.31                   535.18                   587.72                   616.99                   625.21                   157.95                   245.86                   536.08                   588.87                   618.25                   626.49                   157.17                   244.85                   534.42                   586.99                   616.30                   624.52                   156.69                   244.14                   532.86                   585.24                   614.46                   622.68                   157.13                   244.77                   534.02                   586.50                   615.84                   624.07                   157.39                   245.07                   534.38                   586.92                   616.22                   624.45                   155.36                   241.94                   527.05                   578.62                   607.46                   615.57                   149.63                   230.69                   492.59                   539.04                   565.50                   573.11                   150.74                   219.37                   412.63                   443.14                   461.27                   466.92
20.000                   2.2500                   2.0000                   6000.0                   2500.0                   20.000                   244.57                   345.33                   677.23                   742.36                   779.08                   788.58                   245.31                   346.28                   679.47                   745.48                   782.66                   792.17                   245.83                   346.85                   679.95                   745.63                   782.67                   792.18                   245.05                   345.91                   678.62                   744.29                   781.09                   790.57                   244.43                   345.07                   676.25                   741.21                   777.87                   787.34                   244.92                   345.75                   678.39                   744.44                   781.09                   790.51                   245.07                   345.92                   678.92                   744.64                   781.37                   790.87                   242.03                   341.67                   668.70                   731.88                   767.29                   776.58                   231.80                   324.58                   624.96                   680.11                   710.69                   718.94                   225.16                   302.66                   520.71                   555.55                   575.49                   581.43
20.000                   2.2500                   2.0000                   6000.0                   2500.0                   25.000                   331.09                   439.52                   810.25                   893.46                   934.16                   943.33                   331.79                   440.31                   810.41                   893.23                   933.83                   943.01                   332.30                   440.85                   810.25                   892.87                   933.28                   942.45                   331.58                   440.06                   809.70                   892.30                   932.72                   941.89                   330.87                   439.04                   805.19                   886.78                   927.52                   936.85                   331.40                   439.86                   809.83                   892.99                   933.46                   942.61                   331.47                   439.97                   809.83                   892.37                   932.73                   941.92                   327.46                   434.70                   796.81                   878.01                   918.25                   927.54                   313.01                   412.95                   733.46                   798.25                   834.20                   843.10                   301.70                   384.98                   619.02                   656.91                   678.36                   684.31
20.000                   2.2500                   2.0000                   6000.0                   2500.0                   30.000                   412.59                   524.92                   944.31                   1022.2                   1052.5                   1057.6                   413.19                   525.50                   940.42                   1016.5                   1046.9                   1052.2                   413.69                   526.00                   938.38                   1013.2                   1043.6                   1049.0                   413.05                   525.34                   938.07                   1013.2                   1043.7                   1049.1                   412.30                   524.24                   931.32                   1005.7                   1036.8                   1042.5                   412.86                   525.14                   936.87                   1011.8                   1042.4                   1047.9                   412.89                   525.18                   936.28                   1011.1                   1041.6                   1047.1                   408.07                   519.28                   929.17                   1007.2                   1039.7                   1045.7                   390.04                   493.05                   836.63                   908.20                   942.62                   950.27                   373.48                   459.66                   692.26                   728.65                   749.30                   754.82
20.000                   2.2500                   2.0000                   6000.0                   2500.0                   35.000                   486.43                   600.24                   1069.5                   1113.4                   1123.6                   1123.4                   486.92                   600.19                   1049.3                   1095.6                   1107.0                   1107.1                   487.33                   599.29                   949.59                   988.98                   1005.9                   1009.0                   486.83                   599.72                   1003.0                   1050.3                   1064.8                   1066.1                   485.96                   597.20                   947.73                   991.54                   1011.0                   1014.7                   486.59                   598.69                   963.58                   1007.0                   1024.8                   1027.7                   486.62                   598.78                   956.66                   996.33                   1012.8                   1015.6                   481.30                   594.04                   1016.8                   1066.4                   1080.4                   1081.3                   460.07                   562.91                   906.14                   965.56                   993.16                   998.85                   439.10                   524.19                   738.67                   771.96                   790.97                   795.86
20.000                   2.2500                   2.0000                   6000.0                   2500.0                   40.000                   550.63                   661.31                   1095.4                   1123.3                   1129.0                   1127.8                   550.96                   660.68                   1082.2                   1111.6                   1118.0                   1117.1                   550.97                   655.91                   957.24                   985.67                   998.17                   1000.3                   550.96                   659.53                   1036.6                   1069.4                   1078.3                   1078.3                   549.27                   652.48                   954.94                   988.72                   1004.3                   1007.1                   550.28                   656.22                   993.00                   1027.4                   1039.9                   1041.3                   550.45                   656.07                   968.34                   997.48                   1009.7                   1011.5                   545.43                   654.69                   1031.1                   1064.0                   1073.2                   1073.2                   520.68                   619.55                   938.03                   980.32                   999.57                   1003.3                   495.62                   576.24                   775.00                   807.34                   825.19                   829.56
20.000                   2.2500                   2.0000                   6000.0                   2500.0                   45.000                   606.47                   711.12                   1101.1                   1121.6                   1125.3                   1123.8                   606.66                   710.09                   1092.6                   1114.0                   1118.1                   1116.8                   606.16                   702.34                   977.60                   1000.1                   1009.6                   1010.9                   606.81                   708.69                   1056.1                   1080.0                   1085.8                   1085.0                   603.93                   697.31                   969.60                   996.52                   1008.7                   1010.7                   605.53                   703.77                   1030.0                   1057.9                   1066.1                   1066.1                   605.89                   703.04                   989.69                   1013.5                   1022.7                   1023.7                   601.73                   704.25                   1038.3                   1063.0                   1069.8                   1069.4                   574.57                   668.25                   975.01                   1009.2                   1023.0                   1025.1                   545.95                   620.39                   809.02                   840.17                   856.90                   860.84
20.000                   2.2500                   2.0000                   6000.0                   2500.0                   50.000                   649.43                   749.09                   1096.9                   1113.6                   1116.4                   1114.8                   649.53                   748.05                   1092.4                   1109.5                   1112.5                   1111.0                   648.72                   738.39                   1006.2                   1026.0                   1032.9                   1033.2                   649.89                   746.95                   1067.7                   1086.1                   1090.1                   1088.9                   646.04                   731.72                   990.48                   1013.0                   1022.2                   1023.3                   648.16                   740.90                   1054.4                   1076.2                   1081.7                   1081.0                   648.69                   739.50                   1016.3                   1036.7                   1043.4                   1043.4                   645.52                   742.20                   1051.7                   1071.3                   1076.1                   1075.2                   618.17                   707.04                   1016.2                   1045.7                   1055.4                   1055.9                   587.22                   655.55                   839.48                   868.79                   884.39                   887.92
20.000                   2.2500                   2.0000                   6000.0                   2500.0                   55.000                   684.82                   785.04                   1091.8                   1105.5                   1107.6                   1105.8                   684.82                   784.47                   1090.0                   1103.8                   1106.0                   1104.3                   683.91                   774.17                   1035.6                   1052.4                   1057.1                   1056.4                   685.37                   784.33                   1076.5                   1090.8                   1093.3                   1091.8                   681.10                   765.09                   1014.9                   1034.0                   1040.6                   1040.7                   683.45                   777.06                   1069.2                   1086.1                   1089.7                   1088.5                   684.07                   775.72                   1042.2                   1058.9                   1063.3                   1062.5                   681.89                   779.28                   1064.4                   1079.8                   1082.9                   1081.6                   655.70                   741.94                   1050.1                   1074.0                   1080.5                   1079.9                   623.23                   685.89                   866.50                   893.65                   907.93                   911.02
20.000                   2.2500                   2.0000                   6000.0                   2500.0                   60.000                   712.77                   819.83                   1088.9                   1100.1                   1101.5                   1099.7                   712.69                   819.71                   1088.6                   1099.9                   1101.3                   1099.5                   711.80                   810.50                   1060.0                   1073.6                   1076.4                   1075.1                   713.38                   820.81                   1083.4                   1094.6                   1096.1                   1094.3                   708.98                   799.50                   1040.1                   1055.8                   1060.1                   1059.3                   711.39                   812.80                   1078.1                   1091.1                   1093.3                   1091.8                   712.08                   812.34                   1063.6                   1076.8                   1079.3                   1077.9                   710.70                   815.96                   1075.6                   1087.5                   1089.4                   1087.8                   687.25                   775.82                   1075.0                   1093.4                   1097.4                   1096.1                   654.43                   711.88                   890.13                   914.81                   927.67                   930.32
20.000                   2.2500                   2.0000                   6000.0                   2500.0                   65.000                   735.20                   853.65                   1089.6                   1098.7                   1099.4                   1097.5                   735.06                   853.75                   1090.0                   1099.0                   1099.8                   1097.9                   734.24                   847.08                   1077.2                   1087.5                   1088.9                   1087.1                   735.91                   855.97                   1089.4                   1098.2                   1098.9                   1096.9                   731.25                   835.38                   1062.9                   1075.1                   1077.5                   1076.0                   733.77                   847.99                   1084.4                   1094.4                   1095.5                   1093.7                   734.59                   848.96                   1079.1                   1089.1                   1090.3                   1088.5                   733.72                   851.95                   1085.0                   1094.2                   1095.0                   1093.2                   713.10                   810.14                   1090.9                   1104.8                   1107.0                   1105.3                   681.16                   734.46                   910.67                   932.68                   944.07                   946.29
20.000                   2.2500                   2.0000                   6000.0                   2500.0                   70.000                   756.50                   886.02                   1093.3                   1100.5                   1100.6                   1098.6                   756.32                   886.23                   1093.8                   1100.9                   1101.1                   1099.1                   755.54                   882.26                   1088.8                   1096.4                   1096.8                   1094.8                   757.49                   889.03                   1095.0                   1101.8                   1101.9                   1099.8                   751.75                   871.18                   1079.7                   1088.7                   1089.6                   1087.8                   754.81                   881.68                   1090.6                   1098.2                   1098.5                   1096.6                   756.00                   883.96                   1090.0                   1097.4                   1097.7                   1095.7                   755.30                   886.05                   1092.9                   1099.9                   1100.0                   1098.0                   733.61                   844.44                   1100.4                   1110.8                   1111.9                   1109.9                   703.54                   755.18                   928.57                   947.91                   957.87                   959.68
20.000                   2.2500                   2.0000                   6000.0                   2500.0                   75.000                   793.13                   915.36                   1098.9                   1104.6                   1104.3                   1102.1                   792.99                   915.51                   1099.3                   1105.0                   1104.6                   1102.5                   792.54                   912.91                   1096.1                   1102.1                   1101.9                   1099.8                   794.46                   918.07                   1100.5                   1105.9                   1105.5                   1103.4                   787.82                   903.44                   1089.1                   1096.1                   1096.3                   1094.3                   791.22                   911.79                   1096.8                   1102.8                   1102.7                   1100.5                   793.05                   914.29                   1097.1                   1102.9                   1102.6                   1100.5                   792.01                   915.71                   1099.2                   1104.7                   1104.4                   1102.2                   760.18                   875.29                   1104.7                   1113.2                   1113.6                   1111.5                   719.21                   778.74                   944.31                   961.25                   969.83                   971.23