% Model:              batchmodel_COIL_N_20_COIL_kr_1.5_COIL_kh_1_FUNZ_freq_2000_FUNZ_I_eff_1000.mph
% Version:            COMSOL 6.0.0.318
% Date:               Feb 9 2022, 00:07
% Table:              Tabella 1 - GRIGLIA_T
% COIL_N                 COIL_kr                  COIL_kh                  FUNZ_freq                FUNZ_I_eff               Time (s)                 Temperatura (degC), Point: (0, 0)Temperatura (degC), Point: (15, 0)Temperatura (degC), Point: (25.641, 0)Temperatura (degC), Point: (27.821, 0)Temperatura (degC), Point: (29.128, 0)Temperatura (degC), Point: (29.99, 0)Temperatura (degC), Point: (0, 62.5)Temperatura (degC), Point: (15, 62.5)Temperatura (degC), Point: (25.641, 62.5)Temperatura (degC), Point: (27.821, 62.5)Temperatura (degC), Point: (29.128, 62.5)Temperatura (degC), Point: (29.99, 62.5)Temperatura (degC), Point: (0, 125)Temperatura (degC), Point: (15, 125)Temperatura (degC), Point: (25.641, 125)Temperatura (degC), Point: (27.821, 125)Temperatura (degC), Point: (29.128, 125)Temperatura (degC), Point: (29.99, 125)Temperatura (degC), Point: (0, 187.5)Temperatura (degC), Point: (15, 187.5)Temperatura (degC), Point: (25.641, 187.5)Temperatura (degC), Point: (27.821, 187.5)Temperatura (degC), Point: (29.128, 187.5)Temperatura (degC), Point: (29.99, 187.5)Temperatura (degC), Point: (0, 250)Temperatura (degC), Point: (15, 250)Temperatura (degC), Point: (25.641, 250)Temperatura (degC), Point: (27.821, 250)Temperatura (degC), Point: (29.128, 250)Temperatura (degC), Point: (29.99, 250)Temperatura (degC), Point: (0, 312.5)Temperatura (degC), Point: (15, 312.5)Temperatura (degC), Point: (25.641, 312.5)Temperatura (degC), Point: (27.821, 312.5)Temperatura (degC), Point: (29.128, 312.5)Temperatura (degC), Point: (29.99, 312.5)Temperatura (degC), Point: (0, 375)Temperatura (degC), Point: (15, 375)Temperatura (degC), Point: (25.641, 375)Temperatura (degC), Point: (27.821, 375)Temperatura (degC), Point: (29.128, 375)Temperatura (degC), Point: (29.99, 375)Temperatura (degC), Point: (0, 437.5)Temperatura (degC), Point: (15, 437.5)Temperatura (degC), Point: (25.641, 437.5)Temperatura (degC), Point: (27.821, 437.5)Temperatura (degC), Point: (29.128, 437.5)Temperatura (degC), Point: (29.99, 437.5)Temperatura (degC), Point: (0, 468.75)Temperatura (degC), Point: (15, 468.75)Temperatura (degC), Point: (25.641, 468.75)Temperatura (degC), Point: (27.821, 468.75)Temperatura (degC), Point: (29.128, 468.75)Temperatura (degC), Point: (29.99, 468.75)Temperatura (degC), Point: (0, 492.19)Temperatura (degC), Point: (15, 492.19)Temperatura (degC), Point: (25.641, 492.19)Temperatura (degC), Point: (27.821, 492.19)Temperatura (degC), Point: (29.128, 492.19)Temperatura (degC), Point: (29.99, 492.19)
20.000                   1.5000                   1.0000                   2000.0                   1000.0                   0.0000                   20.000                   20.000                   20.000                   20.000                   20.001                   20.044                   20.000                   20.000                   20.000                   20.000                   20.001                   20.047                   20.000                   20.000                   20.000                   20.000                   20.002                   20.050                   20.000                   20.000                   20.000                   20.000                   20.002                   20.050                   20.000                   20.000                   20.000                   20.000                   20.001                   20.046                   20.000                   20.000                   20.000                   20.000                   20.001                   20.045                   20.000                   20.000                   20.000                   20.000                   20.001                   20.048                   20.000                   20.000                   20.000                   20.000                   20.002                   20.051                   20.000                   20.000                   20.000                   20.000                   20.001                   20.044                   20.000                   20.000                   20.000                   20.000                   20.001                   20.040
20.000                   1.5000                   1.0000                   2000.0                   1000.0                   5.0000                   21.273                   24.942                   40.616                   46.134                   49.420                   50.990                   21.227                   24.784                   40.018                   45.590                   48.968                   50.493                   21.290                   25.081                   41.621                   48.289                   52.252                   53.965                   21.250                   24.907                   40.628                   46.510                   50.159                   51.868                   21.226                   24.759                   39.665                   45.101                   48.394                   50.035                   21.233                   24.753                   39.653                   45.108                   48.369                   49.936                   21.270                   24.924                   40.594                   46.375                   49.697                   51.456                   21.315                   25.175                   41.801                   48.021                   51.866                   53.690                   21.179                   24.535                   38.472                   43.666                   46.841                   48.390                   21.219                   24.518                   38.179                   43.011                   45.433                   46.705
20.000                   1.5000                   1.0000                   2000.0                   1000.0                   10.000                   28.380                   36.808                   57.550                   63.381                   66.852                   68.475                   27.891                   35.849                   55.662                   61.467                   65.018                   66.644                   28.323                   36.876                   58.546                   65.158                   69.099                   70.895                   28.086                   36.360                   57.250                   63.451                   67.330                   69.156                   28.031                   36.153                   56.387                   62.229                   65.760                   67.442                   28.136                   36.263                   56.287                   62.002                   65.455                   67.082                   28.408                   36.894                   58.052                   64.228                   67.911                   69.709                   28.540                   37.302                   59.308                   65.766                   69.740                   71.592                   27.717                   35.408                   54.292                   59.802                   63.200                   64.797                   27.545                   34.905                   52.622                   57.521                   60.318                   61.694
20.000                   1.5000                   1.0000                   2000.0                   1000.0                   15.000                   39.270                   50.401                   73.481                   79.559                   83.080                   84.691                   38.196                   48.776                   71.102                   77.355                   81.230                   83.027                   39.063                   50.296                   74.098                   80.852                   84.769                   86.614                   38.595                   49.522                   72.621                   79.103                   83.174                   84.980                   38.508                   49.249                   71.588                   77.686                   81.309                   82.989                   38.754                   49.445                   71.228                   76.988                   80.391                   81.896                   39.342                   50.479                   73.426                   79.571                   83.063                   84.635                   39.510                   50.958                   74.936                   81.561                   85.624                   87.465                   37.754                   47.862                   68.469                   74.066                   77.371                   78.883                   37.177                   46.936                   66.976                   72.217                   75.131                   76.521
20.000                   1.5000                   1.0000                   2000.0                   1000.0                   20.000                   52.883                   65.569                   91.950                   98.851                   102.62                   104.19                   51.064                   63.002                   87.795                   94.678                   98.622                   100.35                   52.415                   65.079                   91.719                   99.393                   103.59                   105.50                   51.697                   64.026                   89.601                   96.750                   101.16                   102.96                   51.623                   63.860                   89.345                   96.318                   100.15                   101.89                   51.986                   64.025                   88.467                   94.908                   98.317                   99.764                   53.018                   65.573                   91.201                   98.061                   101.43                   102.94                   53.177                   66.177                   93.332                   100.84                   105.20                   107.10                   50.304                   61.626                   84.394                   90.653                   94.036                   95.463                   49.617                   61.176                   85.450                   91.656                   94.681                   96.062
20.000                   1.5000                   1.0000                   2000.0                   1000.0                   25.000                   67.117                   80.761                   108.74                   115.98                   119.87                   121.43                   64.589                   77.312                   103.18                   110.26                   114.22                   115.92                   66.393                   79.922                   107.82                   115.72                   120.00                   121.90                   65.443                   78.595                   105.20                   112.49                   116.94                   118.72                   65.401                   78.576                   105.68                   113.00                   116.96                   118.75                   65.869                   78.746                   104.55                   111.26                   114.67                   116.10                   67.381                   80.850                   107.93                   115.18                   118.65                   120.24                   67.476                   81.473                   110.32                   118.21                   122.73                   124.67                   63.531                   75.613                   99.584                   106.17                   109.59                   111.00                   62.765                   75.444                   101.66                   108.22                   111.35                   112.74
20.000                   1.5000                   1.0000                   2000.0                   1000.0                   30.000                   81.043                   94.218                   120.21                   126.92                   130.76                   132.38                   78.323                   90.843                   115.64                   122.35                   126.30                   128.04                   80.268                   93.492                   120.03                   127.40                   131.68                   133.58                   79.257                   92.183                   117.83                   124.81                   129.15                   130.97                   79.156                   91.996                   117.53                   124.34                   128.26                   130.03                   79.758                   92.372                   116.98                   123.38                   126.96                   128.51                   81.546                   94.690                   120.47                   127.33                   131.05                   132.73                   81.436                   95.030                   122.26                   129.65                   134.08                   136.00                   76.793                   88.677                   111.81                   118.06                   121.60                   123.14                   75.449                   87.410                   110.80                   116.66                   119.78                   121.19
20.000                   1.5000                   1.0000                   2000.0                   1000.0                   35.000                   94.969                   107.68                   131.67                   137.86                   141.64                   143.33                   92.056                   104.37                   128.10                   134.43                   138.39                   140.16                   94.143                   107.06                   132.24                   139.08                   143.36                   145.26                   93.071                   105.77                   130.46                   137.13                   141.36                   143.22                   92.911                   105.42                   129.37                   135.68                   139.56                   141.32                   93.647                   106.00                   129.40                   135.50                   139.25                   140.93                   95.711                   108.53                   133.01                   139.48                   143.44                   145.23                   95.397                   108.59                   134.21                   141.10                   145.42                   147.32                   90.056                   101.74                   124.03                   129.96                   133.62                   135.28                   88.133                   99.375                   119.94                   125.11                   128.20                   129.63
20.000                   1.5000                   1.0000                   2000.0                   1000.0                   40.000                   108.17                   120.37                   142.93                   148.77                   152.49                   154.18                   105.39                   117.52                   140.63                   146.77                   150.71                   152.48                   107.43                   120.01                   144.26                   150.83                   155.11                   156.93                   106.37                   118.82                   142.83                   149.33                   153.47                   155.33                   106.18                   118.37                   141.36                   147.42                   151.30                   153.04                   106.98                   119.05                   141.72                   147.70                   151.55                   153.27                   109.18                   121.63                   145.18                   151.44                   155.51                   157.33                   108.66                   121.43                   145.91                   152.50                   156.71                   158.59                   102.81                   114.32                   136.21                   142.06                   145.85                   147.58                   100.14                   110.70                   129.39                   134.16                   137.23                   138.66
20.000                   1.5000                   1.0000                   2000.0                   1000.0                   45.000                   121.04                   132.73                   154.09                   159.67                   163.32                   165.00                   118.54                   130.49                   153.18                   159.22                   163.12                   164.90                   120.44                   132.69                   156.19                   162.62                   166.89                   168.58                   119.44                   131.62                   155.09                   161.48                   165.53                   167.37                   119.23                   131.12                   153.43                   159.35                   163.23                   164.96                   120.07                   131.84                   153.99                   159.94                   163.86                   165.59                   122.34                   134.40                   157.18                   163.32                   167.42                   169.26                   121.61                   133.95                   157.51                   163.89                   167.99                   169.82                   115.34                   126.68                   148.39                   154.26                   158.17                   159.95                   111.84                   121.74                   138.97                   143.48                   146.52                   147.95
20.000                   1.5000                   1.0000                   2000.0                   1000.0                   50.000                   133.82                   145.57                   167.31                   173.06                   176.81                   178.51                   131.60                   143.66                   166.73                   172.91                   176.91                   178.70                   133.33                   145.66                   169.52                   176.09                   180.44                   182.17                   132.41                   144.69                   168.51                   175.03                   179.18                   181.05                   132.20                   144.17                   166.83                   172.90                   176.86                   178.60                   133.02                   144.88                   167.36                   173.43                   177.41                   179.15                   135.24                   147.37                   170.51                   176.79                   180.97                   182.82                   134.26                   146.65                   170.54                   177.07                   181.27                   183.14                   127.59                   139.00                   161.00                   166.98                   170.94                   172.72                   123.47                   133.33                   150.76                   155.37                   158.45                   159.89
20.000                   1.5000                   1.0000                   2000.0                   1000.0                   55.000                   146.59                   158.50                   180.94                   186.93                   190.81                   192.55                   144.63                   156.86                   180.46                   186.84                   190.95                   192.77                   146.19                   158.69                   183.12                   189.88                   194.33                   196.14                   145.36                   157.80                   182.14                   188.86                   193.15                   195.04                   145.14                   157.28                   180.49                   186.75                   190.81                   192.58                   145.94                   157.96                   180.94                   187.16                   191.20                   192.97                   148.10                   160.38                   184.09                   190.57                   194.83                   196.70                   146.85                   159.38                   183.85                   190.60                   194.95                   196.85                   139.78                   151.31                   173.69                   179.80                   183.79                   185.56                   135.08                   145.04                   162.99                   167.76                   170.90                   172.35
20.000                   1.5000                   1.0000                   2000.0                   1000.0                   60.000                   159.35                   171.44                   194.56                   200.80                   204.82                   206.58                   157.67                   170.07                   194.19                   200.77                   205.00                   206.84                   159.06                   171.72                   196.72                   203.68                   208.21                   210.11                   158.31                   170.92                   195.78                   202.68                   207.11                   209.04                   158.09                   170.39                   194.15                   200.60                   204.76                   206.56                   158.86                   171.05                   194.52                   200.89                   205.00                   206.78                   160.95                   173.39                   197.67                   204.35                   208.69                   210.57                   159.45                   172.12                   197.15                   204.12                   208.62                   210.57                   151.97                   163.62                   186.39                   192.61                   196.64                   198.41                   146.70                   156.74                   175.21                   180.14                   183.34                   184.81
20.000                   1.5000                   1.0000                   2000.0                   1000.0                   65.000                   172.15                   184.42                   208.21                   214.68                   218.83                   220.62                   170.72                   183.30                   207.95                   214.71                   219.05                   220.92                   171.95                   184.78                   210.35                   217.50                   222.12                   224.09                   171.28                   184.06                   209.45                   216.53                   221.10                   223.05                   171.05                   183.53                   207.83                   214.47                   218.72                   220.55                   171.81                   184.16                   208.14                   214.66                   218.82                   220.62                   173.83                   186.43                   211.28                   218.15                   222.57                   224.47                   172.06                   184.88                   210.48                   217.66                   222.30                   224.28                   164.17                   175.95                   199.11                   205.46                   209.53                   211.30                   158.36                   168.49                   187.45                   192.54                   195.80                   197.27
20.000                   1.5000                   1.0000                   2000.0                   1000.0                   70.000                   185.15                   197.67                   222.00                   228.63                   232.86                   234.67                   183.87                   196.67                   221.81                   228.72                   233.15                   235.03                   184.99                   198.06                   224.16                   231.47                   236.19                   238.18                   184.38                   197.40                   223.32                   230.55                   235.21                   237.18                   184.14                   196.84                   221.65                   228.43                   232.77                   234.62                   184.89                   197.47                   221.94                   228.61                   232.86                   234.67                   186.82                   199.66                   225.03                   232.05                   236.57                   238.48                   184.76                   197.81                   223.94                   231.27                   236.01                   238.01                   176.45                   188.42                   212.00                   218.48                   222.63                   224.41                   170.26                   180.54                   199.81                   204.99                   208.30                   209.78
20.000                   1.5000                   1.0000                   2000.0                   1000.0                   75.000                   198.15                   210.91                   235.79                   242.57                   246.89                   248.72                   197.01                   210.04                   235.68                   242.73                   247.25                   249.15                   198.04                   211.35                   237.98                   245.45                   250.26                   252.27                   197.49                   210.74                   237.19                   244.57                   249.33                   251.32                   197.23                   210.16                   235.47                   242.40                   246.83                   248.69                   197.97                   210.77                   235.75                   242.56                   246.90                   248.73                   199.82                   212.89                   238.79                   245.96                   250.56                   252.49                   197.46                   210.74                   237.40                   244.89                   249.72                   251.74                   188.73                   200.89                   224.90                   231.50                   235.73                   237.53                   182.16                   192.59                   212.18                   217.44                   220.80                   222.29