% Model:              batchmodel_COIL_N_20_COIL_kr_3_COIL_kh_1.5_FUNZ_freq_6000_FUNZ_I_eff_2500.mph
% Version:            COMSOL 6.0.0.318
% Date:               Feb 9 2022, 04:02
% Table:              Tabella 1 - GRIGLIA_T
% COIL_N                 COIL_kr                  COIL_kh                  FUNZ_freq                FUNZ_I_eff               Time (s)                 Temperatura (degC), Point: (0, 0)Temperatura (degC), Point: (15, 0)Temperatura (degC), Point: (27.483, 0)Temperatura (degC), Point: (28.742, 0)Temperatura (degC), Point: (29.497, 0)Temperatura (degC), Point: (29.99, 0)Temperatura (degC), Point: (0, 62.5)Temperatura (degC), Point: (15, 62.5)Temperatura (degC), Point: (27.483, 62.5)Temperatura (degC), Point: (28.742, 62.5)Temperatura (degC), Point: (29.497, 62.5)Temperatura (degC), Point: (29.99, 62.5)Temperatura (degC), Point: (0, 125)Temperatura (degC), Point: (15, 125)Temperatura (degC), Point: (27.483, 125)Temperatura (degC), Point: (28.742, 125)Temperatura (degC), Point: (29.497, 125)Temperatura (degC), Point: (29.99, 125)Temperatura (degC), Point: (0, 187.5)Temperatura (degC), Point: (15, 187.5)Temperatura (degC), Point: (27.483, 187.5)Temperatura (degC), Point: (28.742, 187.5)Temperatura (degC), Point: (29.497, 187.5)Temperatura (degC), Point: (29.99, 187.5)Temperatura (degC), Point: (0, 250)Temperatura (degC), Point: (15, 250)Temperatura (degC), Point: (27.483, 250)Temperatura (degC), Point: (28.742, 250)Temperatura (degC), Point: (29.497, 250)Temperatura (degC), Point: (29.99, 250)Temperatura (degC), Point: (0, 312.5)Temperatura (degC), Point: (15, 312.5)Temperatura (degC), Point: (27.483, 312.5)Temperatura (degC), Point: (28.742, 312.5)Temperatura (degC), Point: (29.497, 312.5)Temperatura (degC), Point: (29.99, 312.5)Temperatura (degC), Point: (0, 375)Temperatura (degC), Point: (15, 375)Temperatura (degC), Point: (27.483, 375)Temperatura (degC), Point: (28.742, 375)Temperatura (degC), Point: (29.497, 375)Temperatura (degC), Point: (29.99, 375)Temperatura (degC), Point: (0, 437.5)Temperatura (degC), Point: (15, 437.5)Temperatura (degC), Point: (27.483, 437.5)Temperatura (degC), Point: (28.742, 437.5)Temperatura (degC), Point: (29.497, 437.5)Temperatura (degC), Point: (29.99, 437.5)Temperatura (degC), Point: (0, 468.75)Temperatura (degC), Point: (15, 468.75)Temperatura (degC), Point: (27.483, 468.75)Temperatura (degC), Point: (28.742, 468.75)Temperatura (degC), Point: (29.497, 468.75)Temperatura (degC), Point: (29.99, 468.75)Temperatura (degC), Point: (0, 492.19)Temperatura (degC), Point: (15, 492.19)Temperatura (degC), Point: (27.483, 492.19)Temperatura (degC), Point: (28.742, 492.19)Temperatura (degC), Point: (29.497, 492.19)Temperatura (degC), Point: (29.99, 492.19)
20.000                   3.0000                   1.5000                   6000.0                   2500.0                   0.0000                   20.000                   20.000                   20.000                   20.000                   20.074                   20.363                   20.000                   20.000                   20.000                   20.000                   20.074                   20.363                   20.000                   20.000                   20.000                   20.000                   20.074                   20.363                   20.000                   20.000                   20.000                   20.000                   20.074                   20.363                   20.000                   20.000                   20.000                   20.000                   20.074                   20.363                   20.000                   20.000                   20.000                   20.000                   20.074                   20.363                   20.000                   20.000                   20.000                   20.000                   20.074                   20.363                   20.000                   20.000                   20.000                   20.000                   20.072                   20.359                   20.000                   20.000                   20.000                   20.000                   20.067                   20.340                   20.000                   20.000                   20.000                   20.000                   20.049                   20.293
20.000                   3.0000                   1.5000                   6000.0                   2500.0                   5.0000                   27.513                   56.417                   219.85                   250.95                   269.95                   276.52                   27.517                   56.473                   220.76                   251.25                   269.91                   276.51                   27.504                   56.476                   223.74                   254.19                   273.54                   279.90                   27.514                   56.430                   219.32                   249.21                   267.09                   273.80                   27.564                   56.722                   222.56                   252.82                   271.50                   278.06                   27.535                   56.540                   221.49                   251.24                   269.66                   276.23                   27.364                   55.792                   218.32                   248.80                   267.49                   274.07                   27.301                   55.525                   214.98                   243.18                   260.69                   267.00                   25.936                   49.946                   191.82                   218.60                   235.21                   241.03                   34.775                   57.750                   170.11                   189.85                   201.91                   206.44
20.000                   3.0000                   1.5000                   6000.0                   2500.0                   10.000                   76.773                   145.98                   381.63                   422.63                   447.05                   454.29                   76.881                   146.28                   382.26                   423.09                   447.01                   454.21                   77.034                   146.67                   383.57                   423.75                   447.46                   454.74                   76.877                   146.03                   380.07                   420.58                   444.86                   451.93                   77.136                   146.72                   384.00                   425.03                   449.05                   456.35                   76.842                   146.03                   382.08                   422.85                   446.74                   453.96                   76.116                   144.76                   378.62                   418.85                   442.53                   449.73                   74.919                   142.06                   368.84                   407.23                   430.24                   437.27                   69.546                   130.45                   333.40                   366.88                   386.56                   392.71                   86.900                   138.83                   290.50                   312.58                   325.75                   330.37
20.000                   3.0000                   1.5000                   6000.0                   2500.0                   15.000                   158.50                   246.77                   531.84                   582.47                   610.73                   618.66                   158.69                   247.13                   532.69                   583.35                   611.64                   619.56                   159.14                   247.85                   534.02                   584.73                   613.19                   621.11                   158.72                   247.00                   531.80                   582.18                   610.42                   618.40                   159.20                   247.94                   534.73                   585.61                   613.96                   621.86                   158.60                   247.00                   532.93                   583.73                   612.08                   619.99                   157.38                   245.18                   528.80                   579.17                   607.35                   615.26                   153.97                   239.61                   513.19                   560.98                   587.88                   595.51                   143.71                   220.82                   460.17                   500.55                   523.84                   530.74                   152.93                   216.98                   389.01                   415.20                   430.97                   436.08
20.000                   3.0000                   1.5000                   6000.0                   2500.0                   20.000                   246.30                   347.37                   677.76                   740.96                   776.16                   785.49                   246.54                   347.70                   677.38                   739.64                   775.05                   784.40                   247.18                   348.43                   676.54                   736.98                   772.15                   781.39                   246.65                   347.63                   673.70                   732.87                   766.80                   776.40                   247.30                   348.84                   681.41                   745.31                   781.05                   790.29                   246.49                   347.73                   678.08                   740.14                   775.46                   784.79                   244.90                   345.49                   672.00                   732.64                   766.97                   776.17                   239.10                   337.04                   655.30                   715.04                   747.67                   756.33                   223.33                   310.84                   589.02                   638.30                   666.03                   673.71                   224.75                   295.88                   483.37                   510.68                   526.92                   532.33
20.000                   3.0000                   1.5000                   6000.0                   2500.0                   25.000                   331.16                   438.72                   803.95                   879.65                   918.25                   927.37                   331.41                   439.05                   805.15                   880.74                   919.51                   928.60                   332.06                   439.66                   805.08                   880.15                   918.97                   928.04                   331.57                   438.96                   800.84                   874.11                   911.69                   920.83                   332.31                   440.30                   808.95                   885.71                   924.61                   933.62                   331.45                   439.18                   805.36                   880.92                   919.57                   928.63                   329.63                   436.70                   798.36                   872.76                   911.13                   920.21                   321.80                   426.29                   775.95                   848.39                   885.48                   894.37                   300.92                   394.32                   689.18                   744.43                   775.43                   783.49                   295.69                   370.92                   571.72                   602.15                   619.76                   625.11
20.000                   3.0000                   1.5000                   6000.0                   2500.0                   30.000                   412.19                   523.34                   926.16                   1002.1                   1034.4                   1040.4                   412.43                   523.67                   928.54                   1004.9                   1037.0                   1043.0                   413.02                   524.15                   927.26                   1003.1                   1035.1                   1041.1                   412.63                   523.57                   923.83                   999.33                   1031.6                   1037.7                   413.41                   524.93                   931.66                   1007.8                   1039.5                   1045.4                   412.56                   523.88                   927.46                   1003.2                   1035.2                   1041.2                   410.61                   521.33                   921.85                   998.29                   1031.0                   1037.3                   401.08                   509.23                   891.99                   969.56                   1004.5                   1011.7                   375.58                   472.07                   772.61                   834.93                   867.53                   875.34                   360.99                   439.59                   652.74                   686.69                   706.00                   711.26
20.000                   3.0000                   1.5000                   6000.0                   2500.0                   35.000                   484.78                   595.15                   957.97                   1005.7                   1025.8                   1029.4                   485.12                   597.03                   1035.0                   1084.6                   1097.6                   1098.1                   485.52                   595.93                   958.45                   1005.3                   1025.0                   1028.5                   485.19                   595.31                   957.34                   1005.5                   1025.9                   1029.5                   486.12                   598.52                   1052.6                   1099.6                   1111.1                   1111.2                   485.22                   595.78                   947.90                   990.36                   1008.8                   1012.1                   483.23                   593.46                   952.09                   997.87                   1017.6                   1021.1                   472.56                   582.04                   1021.2                   1079.9                   1096.1                   1097.3                   443.37                   539.75                   848.11                   907.64                   936.79                   943.25                   422.28                   501.79                   707.72                   739.09                   757.17                   761.98
20.000                   3.0000                   1.5000                   6000.0                   2500.0                   40.000                   547.64                   650.64                   953.60                   987.21                   1002.7                   1005.5                   548.79                   658.32                   1084.6                   1113.6                   1119.8                   1118.8                   548.38                   652.07                   966.98                   1001.3                   1016.4                   1018.9                   548.02                   651.33                   969.92                   1006.5                   1022.3                   1025.0                   549.83                   660.29                   1095.8                   1122.9                   1128.3                   1127.1                   548.32                   652.10                   950.40                   980.18                   993.62                   996.00                   546.32                   650.28                   965.65                   999.03                   1013.5                   1015.9                   535.69                   644.55                   1094.1                   1126.5                   1133.3                   1132.3                   502.66                   596.38                   908.18                   962.19                   987.73                   993.01                   477.47                   554.98                   749.05                   780.39                   798.38                   802.97
20.000                   3.0000                   1.5000                   6000.0                   2500.0                   45.000                   600.37                   693.94                   962.21                   988.73                   1001.0                   1003.1                   602.90                   707.87                   1098.1                   1118.3                   1121.9                   1120.4                   601.17                   696.25                   985.87                   1013.9                   1025.4                   1027.0                   600.74                   695.37                   986.29                   1015.8                   1027.9                   1029.6                   603.93                   710.02                   1104.3                   1123.5                   1126.7                   1125.1                   601.44                   696.57                   968.41                   992.37                   1002.9                   1004.5                   599.47                   695.36                   990.34                   1018.1                   1028.9                   1030.2                   590.35                   696.03                   1103.8                   1125.6                   1129.5                   1128.0                   554.52                   644.03                   954.10                   999.78                   1020.1                   1023.8                   526.44                   599.92                   786.07                   817.74                   835.18                   839.40
20.000                   3.0000                   1.5000                   6000.0                   2500.0                   50.000                   644.74                   729.97                   977.78                   999.05                   1008.5                   1009.8                   648.58                   749.93                   1102.0                   1117.0                   1119.2                   1117.5                   645.56                   732.98                   1008.5                   1032.2                   1040.7                   1041.2                   645.07                   731.92                   1005.2                   1029.2                   1038.1                   1038.8                   649.53                   752.02                   1105.7                   1120.3                   1122.3                   1120.5                   646.17                   733.75                   991.66                   1011.7                   1019.7                   1020.4                   644.27                   732.99                   1016.3                   1039.8                   1047.6                   1047.9                   637.15                   738.40                   1098.7                   1115.2                   1117.9                   1116.2                   600.25                   685.43                   989.03                   1025.0                   1038.8                   1040.5                   570.25                   638.71                   818.89                   848.73                   864.73                   868.46
20.000                   3.0000                   1.5000                   6000.0                   2500.0                   55.000                   681.34                   762.75                   999.38                   1016.9                   1023.8                   1024.2                   685.98                   789.16                   1102.1                   1113.9                   1115.3                   1113.4                   682.12                   766.66                   1031.1                   1050.9                   1056.9                   1056.5                   681.61                   765.41                   1026.5                   1046.3                   1052.5                   1052.2                   686.80                   791.15                   1104.6                   1116.2                   1117.5                   1115.5                   682.98                   768.25                   1018.7                   1036.0                   1041.6                   1041.4                   681.23                   767.49                   1039.0                   1058.4                   1063.8                   1063.2                   676.13                   775.95                   1092.3                   1106.0                   1108.0                   1106.2                   639.92                   721.01                   1020.1                   1049.0                   1058.3                   1058.6                   608.76                   672.03                   848.64                   876.46                   891.23                   894.53
20.000                   3.0000                   1.5000                   6000.0                   2500.0                   60.000                   711.74                   796.41                   1024.6                   1039.3                   1043.9                   1043.4                   716.79                   827.00                   1101.0                   1110.5                   1111.2                   1109.2                   712.44                   800.98                   1051.0                   1066.9                   1070.8                   1069.8                   711.95                   799.58                   1047.1                   1063.0                   1067.0                   1066.0                   717.47                   828.80                   1102.7                   1112.0                   1112.7                   1110.6                   713.47                   803.70                   1045.4                   1060.1                   1063.7                   1062.7                   711.88                   802.44                   1057.4                   1072.7                   1076.1                   1075.0                   708.55                   812.17                   1088.4                   1099.7                   1101.2                   1099.4                   674.58                   753.91                   1046.9                   1070.0                   1076.2                   1075.6                   642.98                   701.17                   876.30                   902.23                   915.90                   918.80
20.000                   3.0000                   1.5000                   6000.0                   2500.0                   65.000                   735.49                   833.08                   1050.6                   1062.8                   1065.4                   1064.2                   741.08                   862.60                   1099.9                   1107.6                   1107.8                   1105.7                   736.08                   837.25                   1066.3                   1078.4                   1080.7                   1079.2                   735.60                   835.88                   1063.9                   1076.1                   1078.4                   1076.9                   741.69                   864.03                   1100.9                   1108.5                   1108.7                   1106.6                   737.32                   841.10                   1066.1                   1077.5                   1079.5                   1077.9                   735.77                   838.98                   1070.8                   1082.3                   1084.3                   1082.7                   733.65                   847.63                   1088.1                   1097.3                   1098.2                   1096.3                   703.53                   787.20                   1067.5                   1085.8                   1089.9                   1088.8                   672.75                   725.99                   901.18                   924.91                   937.28                   939.77
20.000                   3.0000                   1.5000                   6000.0                   2500.0                   70.000                   758.70                   869.68                   1072.0                   1081.6                   1082.8                   1081.0                   765.47                   895.13                   1099.9                   1106.1                   1105.9                   1103.7                   759.24                   872.88                   1078.6                   1087.6                   1088.5                   1086.7                   758.71                   871.69                   1077.5                   1086.5                   1087.6                   1085.8                   766.09                   896.19                   1100.4                   1106.5                   1106.3                   1104.2                   760.96                   877.47                   1081.4                   1089.9                   1090.6                   1088.7                   759.06                   874.51                   1081.4                   1089.9                   1090.7                   1088.9                   757.49                   880.97                   1090.2                   1097.6                   1097.9                   1095.9                   727.77                   820.83                   1082.8                   1097.0                   1099.5                   1098.0                   697.80                   748.65                   922.97                   944.26                   955.24                   957.31
20.000                   3.0000                   1.5000                   6000.0                   2500.0                   75.000                   783.91                   904.93                   1086.3                   1093.2                   1093.4                   1091.4                   792.72                   924.10                   1101.5                   1106.4                   1105.8                   1103.6                   784.48                   906.75                   1088.5                   1095.0                   1095.1                   1093.1                   783.83                   905.90                   1088.1                   1094.7                   1094.8                   1092.8                   793.43                   924.86                   1101.7                   1106.6                   1106.0                   1103.8                   787.06                   911.50                   1091.6                   1097.7                   1097.6                   1095.5                   784.31                   907.90                   1090.2                   1096.5                   1096.5                   1094.5                   782.55                   911.51                   1094.6                   1100.4                   1100.2                   1098.1                   747.53                   854.77                   1092.7                   1103.5                   1104.9                   1103.0                   717.83                   769.96                   941.40                   960.05                   969.56                   971.21