% Model:              batchmodel_COIL_N_20_COIL_kr_1.5_COIL_kh_1.5_FUNZ_freq_6000_FUNZ_I_eff_2500.mph
% Version:            COMSOL 6.0.0.318
% Date:               Feb 9 2022, 01:06
% Table:              Tabella 1 - GRIGLIA_T
% COIL_N                 COIL_kr                  COIL_kh                  FUNZ_freq                FUNZ_I_eff               Time (s)                 Temperatura (degC), Point: (0, 0)Temperatura (degC), Point: (15, 0)Temperatura (degC), Point: (27.483, 0)Temperatura (degC), Point: (28.742, 0)Temperatura (degC), Point: (29.497, 0)Temperatura (degC), Point: (29.99, 0)Temperatura (degC), Point: (0, 62.5)Temperatura (degC), Point: (15, 62.5)Temperatura (degC), Point: (27.483, 62.5)Temperatura (degC), Point: (28.742, 62.5)Temperatura (degC), Point: (29.497, 62.5)Temperatura (degC), Point: (29.99, 62.5)Temperatura (degC), Point: (0, 125)Temperatura (degC), Point: (15, 125)Temperatura (degC), Point: (27.483, 125)Temperatura (degC), Point: (28.742, 125)Temperatura (degC), Point: (29.497, 125)Temperatura (degC), Point: (29.99, 125)Temperatura (degC), Point: (0, 187.5)Temperatura (degC), Point: (15, 187.5)Temperatura (degC), Point: (27.483, 187.5)Temperatura (degC), Point: (28.742, 187.5)Temperatura (degC), Point: (29.497, 187.5)Temperatura (degC), Point: (29.99, 187.5)Temperatura (degC), Point: (0, 250)Temperatura (degC), Point: (15, 250)Temperatura (degC), Point: (27.483, 250)Temperatura (degC), Point: (28.742, 250)Temperatura (degC), Point: (29.497, 250)Temperatura (degC), Point: (29.99, 250)Temperatura (degC), Point: (0, 312.5)Temperatura (degC), Point: (15, 312.5)Temperatura (degC), Point: (27.483, 312.5)Temperatura (degC), Point: (28.742, 312.5)Temperatura (degC), Point: (29.497, 312.5)Temperatura (degC), Point: (29.99, 312.5)Temperatura (degC), Point: (0, 375)Temperatura (degC), Point: (15, 375)Temperatura (degC), Point: (27.483, 375)Temperatura (degC), Point: (28.742, 375)Temperatura (degC), Point: (29.497, 375)Temperatura (degC), Point: (29.99, 375)Temperatura (degC), Point: (0, 437.5)Temperatura (degC), Point: (15, 437.5)Temperatura (degC), Point: (27.483, 437.5)Temperatura (degC), Point: (28.742, 437.5)Temperatura (degC), Point: (29.497, 437.5)Temperatura (degC), Point: (29.99, 437.5)Temperatura (degC), Point: (0, 468.75)Temperatura (degC), Point: (15, 468.75)Temperatura (degC), Point: (27.483, 468.75)Temperatura (degC), Point: (28.742, 468.75)Temperatura (degC), Point: (29.497, 468.75)Temperatura (degC), Point: (29.99, 468.75)Temperatura (degC), Point: (0, 492.19)Temperatura (degC), Point: (15, 492.19)Temperatura (degC), Point: (27.483, 492.19)Temperatura (degC), Point: (28.742, 492.19)Temperatura (degC), Point: (29.497, 492.19)Temperatura (degC), Point: (29.99, 492.19)
20.000                   1.5000                   1.5000                   6000.0                   2500.0                   0.0000                   20.000                   20.000                   20.000                   20.000                   20.072                   20.357                   20.000                   20.000                   20.000                   20.000                   20.082                   20.386                   20.000                   20.000                   20.000                   20.000                   20.093                   20.415                   20.000                   20.000                   20.000                   20.000                   20.089                   20.404                   20.000                   20.000                   20.000                   20.000                   20.074                   20.365                   20.000                   20.000                   20.000                   20.000                   20.075                   20.367                   20.000                   20.000                   20.000                   20.000                   20.090                   20.406                   20.000                   20.000                   20.000                   20.000                   20.093                   20.414                   20.000                   20.000                   20.000                   20.000                   20.079                   20.378                   20.000                   20.000                   20.000                   20.000                   20.080                   20.381
20.000                   1.5000                   1.5000                   6000.0                   2500.0                   5.0000                   27.660                   56.229                   207.92                   236.88                   254.72                   260.97                   27.879                   57.688                   218.42                   250.64                   270.85                   277.38                   28.122                   59.281                   231.61                   266.08                   287.23                   293.86                   28.052                   58.836                   228.65                   262.19                   283.37                   290.32                   27.705                   56.576                   211.25                   241.82                   261.08                   267.49                   27.769                   56.917                   211.70                   241.57                   260.31                   266.66                   27.946                   58.272                   226.36                   261.38                   283.76                   290.58                   28.101                   59.150                   232.15                   266.67                   288.40                   295.42                   27.739                   56.773                   214.00                   244.90                   264.36                   271.07                   33.364                   63.259                   212.12                   240.28                   257.66                   263.46
20.000                   1.5000                   1.5000                   6000.0                   2500.0                   10.000                   79.212                   145.54                   374.54                   415.65                   439.95                   447.42                   79.946                   147.78                   384.24                   426.70                   451.61                   459.27                   81.189                   151.63                   401.10                   446.40                   472.69                   480.61                   80.877                   150.41                   395.45                   439.92                   465.80                   473.61                   79.533                   146.34                   377.17                   418.53                   442.94                   450.41                   79.526                   146.20                   376.44                   417.79                   442.16                   449.66                   80.543                   149.96                   394.92                   439.38                   464.96                   472.81                   81.069                   151.34                   400.53                   445.75                   471.87                   479.76                   79.366                   145.98                   378.02                   419.63                   444.16                   451.68                   88.216                   152.87                   362.38                   398.22                   419.75                   426.62
20.000                   1.5000                   1.5000                   6000.0                   2500.0                   15.000                   160.89                   248.76                   539.01                   592.13                   621.76                   629.99                   161.61                   250.67                   548.98                   604.37                   635.10                   643.64                   163.45                   254.74                   563.42                   620.95                   652.96                   661.84                   163.02                   253.52                   557.91                   614.21                   645.45                   654.18                   161.35                   249.54                   542.02                   595.71                   625.60                   633.92                   161.10                   249.21                   542.25                   596.20                   626.33                   634.72                   162.68                   253.25                   558.63                   615.20                   646.53                   655.30                   163.25                   254.47                   562.93                   620.34                   652.31                   661.18                   160.27                   247.73                   539.91                   593.86                   624.00                   632.37                   165.46                   249.18                   507.81                   553.08                   579.02                   586.47
20.000                   1.5000                   1.5000                   6000.0                   2500.0                   20.000                   249.66                   351.29                   681.86                   745.94                   781.72                   790.92                   250.20                   352.83                   691.86                   759.99                   797.61                   807.16                   252.11                   356.54                   705.05                   777.01                   815.86                   825.73                   251.70                   355.45                   699.93                   769.67                   807.62                   817.35                   250.11                   352.00                   685.15                   750.40                   786.67                   795.95                   249.81                   351.79                   685.67                   750.86                   787.34                   796.74                   251.43                   355.39                   701.42                   771.90                   809.89                   819.66                   251.87                   356.28                   704.61                   776.19                   815.02                   824.92                   247.86                   348.77                   680.66                   745.30                   781.35                   790.64                   249.80                   345.93                   638.28                   690.31                   719.13                   726.91
20.000                   1.5000                   1.5000                   6000.0                   2500.0                   25.000                   336.81                   445.13                   798.05                   873.61                   911.28                   919.97                   337.28                   446.97                   816.45                   896.90                   935.88                   944.64                   339.22                   451.50                   875.14                   962.98                   1000.2                   1007.8                   338.78                   449.96                   839.03                   923.17                   962.17                   970.68                   337.24                   446.01                   807.39                   885.92                   924.48                   933.26                   337.05                   446.04                   806.79                   884.61                   922.89                   931.63                   338.66                   450.17                   842.22                   926.97                   966.04                   974.55                   338.94                   451.21                   873.07                   960.60                   997.88                   1005.5                   333.80                   441.51                   801.16                   879.86                   918.83                   927.78                   333.09                   434.82                   732.00                   787.03                   817.58                   825.24
20.000                   1.5000                   1.5000                   6000.0                   2500.0                   30.000                   417.08                   525.27                   857.88                   914.74                   941.92                   947.84                   418.03                   529.36                   875.39                   930.14                   955.65                   961.07                   420.82                   540.72                   1096.4                   1146.6                   1158.1                   1157.8                   420.03                   535.99                   955.88                   1015.0                   1036.1                   1039.3                   417.62                   527.39                   879.43                   939.45                   967.38                   973.30                   417.71                   527.40                   866.35                   922.85                   949.57                   955.32                   420.06                   536.38                   960.42                   1020.3                   1041.2                   1044.1                   420.52                   540.34                   1091.8                   1142.8                   1154.6                   1154.5                   412.99                   521.54                   880.73                   946.20                   976.63                   983.07                   409.66                   510.37                   789.63                   839.00                   864.45                   870.47
20.000                   1.5000                   1.5000                   6000.0                   2500.0                   35.000                   487.52                   590.32                   889.03                   934.18                   956.00                   960.62                   489.73                   598.30                   918.54                   959.01                   977.70                   981.42                   494.53                   618.42                   1135.3                   1163.0                   1168.2                   1166.7                   492.99                   609.97                   1033.5                   1072.9                   1083.9                   1084.3                   488.36                   593.74                   906.01                   950.55                   971.72                   976.09                   488.87                   594.15                   898.14                   941.37                   962.05                   966.36                   493.10                   610.52                   1039.2                   1078.4                   1089.0                   1089.2                   494.24                   618.08                   1133.4                   1161.3                   1166.6                   1165.1                   482.36                   587.49                   936.50                   992.41                   1017.6                   1022.5                   476.37                   572.24                   834.06                   877.70                   899.98                   905.03
20.000                   1.5000                   1.5000                   6000.0                   2500.0                   40.000                   549.16                   643.20                   913.14                   949.85                   967.75                   971.39                   553.01                   655.37                   962.89                   995.50                   1009.3                   1011.6                   560.15                   681.93                   1139.4                   1158.1                   1160.9                   1159.0                   557.78                   671.07                   1075.6                   1102.7                   1109.0                   1108.2                   550.38                   647.59                   928.11                   963.21                   980.02                   983.34                   551.32                   648.69                   926.60                   960.79                   977.15                   980.37                   557.94                   671.77                   1081.4                   1107.8                   1113.7                   1112.8                   559.94                   681.66                   1137.0                   1155.9                   1158.7                   1156.9                   543.14                   643.55                   1021.7                   1064.0                   1076.4                   1077.1                   534.38                   622.89                   860.48                   895.09                   912.65                   916.47
20.000                   1.5000                   1.5000                   6000.0                   2500.0                   45.000                   600.01                   685.18                   933.05                   962.86                   977.41                   980.22                   605.17                   700.61                   1005.2                   1033.2                   1043.0                   1043.8                   613.96                   730.72                   1137.3                   1151.4                   1153.0                   1150.9                   610.99                   718.45                   1096.3                   1116.1                   1120.0                   1118.5                   601.55                   690.23                   949.86                   977.89                   991.11                   993.50                   602.73                   691.88                   953.34                   980.80                   993.58                   995.84                   611.18                   719.38                   1101.1                   1120.3                   1123.9                   1122.4                   613.79                   730.19                   1134.5                   1148.9                   1150.6                   1148.5                   594.30                   690.87                   1063.7                   1092.5                   1099.5                   1098.8                   582.75                   663.45                   881.82                   910.83                   925.54                   928.63
20.000                   1.5000                   1.5000                   6000.0                   2500.0                   50.000                   643.11                   720.27                   951.72                   975.47                   986.89                   988.90                   649.18                   739.05                   1040.5                   1063.4                   1069.9                   1069.6                   658.93                   774.48                   1134.4                   1145.4                   1146.1                   1144.0                   655.60                   760.08                   1107.7                   1122.6                   1124.8                   1123.1                   644.89                   725.91                   972.65                   995.17                   1005.2                   1006.7                   646.16                   728.03                   980.19                   1002.8                   1012.5                   1013.7                   655.83                   761.36                   1111.4                   1125.8                   1127.9                   1126.0                   658.73                   773.45                   1131.9                   1143.2                   1144.0                   1141.9                   638.30                   730.99                   1082.3                   1103.1                   1107.3                   1106.1                   624.26                   697.73                   903.54                   928.18                   940.64                   943.13
20.000                   1.5000                   1.5000                   6000.0                   2500.0                   55.000                   678.85                   751.46                   971.19                   989.84                   998.40                   999.59                   685.37                   775.86                   1065.5                   1083.3                   1087.4                   1086.3                   695.13                   816.30                   1131.9                   1140.7                   1140.8                   1138.5                   691.80                   800.61                   1113.4                   1124.8                   1126.0                   1124.0                   680.75                   758.50                   997.41                   1016.3                   1023.7                   1024.2                   682.02                   761.39                   1007.4                   1026.7                   1033.7                   1033.9                   692.06                   802.23                   1116.3                   1127.4                   1128.5                   1126.4                   694.92                   814.76                   1129.6                   1138.6                   1138.9                   1136.6                   675.24                   767.70                   1090.8                   1106.8                   1109.6                   1108.0                   659.44                   726.49                   925.10                   946.03                   956.55                   958.50
20.000                   1.5000                   1.5000                   6000.0                   2500.0                   60.000                   708.99                   784.90                   994.22                   1009.0                   1015.0                   1015.3                   715.89                   813.56                   1082.9                   1096.4                   1098.7                   1097.1                   725.99                   855.76                   1130.0                   1136.8                   1136.5                   1134.1                   722.50                   839.97                   1116.7                   1125.4                   1125.8                   1123.6                   710.99                   793.25                   1022.2                   1037.8                   1042.9                   1042.6                   712.23                   796.72                   1032.5                   1048.5                   1053.2                   1052.6                   722.81                   841.79                   1119.2                   1127.6                   1127.9                   1125.7                   725.73                   853.82                   1127.5                   1134.6                   1134.4                   1132.1                   706.45                   804.76                   1096.0                   1108.2                   1109.8                   1108.0                   689.76                   754.32                   946.35                   964.02                   972.70                   974.11
20.000                   1.5000                   1.5000                   6000.0                   2500.0                   65.000                   732.89                   822.00                   1021.9                   1034.2                   1038.1                   1037.5                   740.15                   852.63                   1092.1                   1102.1                   1103.2                   1101.3                   751.19                   892.35                   1128.5                   1133.9                   1133.2                   1130.7                   747.25                   877.86                   1117.7                   1124.4                   1124.2                   1121.9                   734.95                   831.38                   1046.6                   1059.3                   1062.3                   1061.2                   736.18                   835.09                   1054.7                   1067.2                   1069.9                   1068.7                   747.63                   879.70                   1120.0                   1126.5                   1126.2                   1123.9                   750.85                   890.17                   1125.8                   1131.4                   1130.8                   1128.4                   731.18                   842.80                   1098.3                   1107.6                   1108.4                   1106.4                   714.66                   781.88                   967.24                   982.13                   989.05                   989.92
20.000                   1.5000                   1.5000                   6000.0                   2500.0                   70.000                   757.99                   859.72                   1047.3                   1057.2                   1059.2                   1057.9                   766.82                   889.30                   1099.2                   1106.4                   1106.5                   1104.5                   780.28                   925.04                   1128.0                   1132.2                   1131.1                   1128.7                   775.41                   912.20                   1118.8                   1123.9                   1123.2                   1120.8                   760.52                   869.06                   1066.8                   1076.4                   1077.9                   1076.2                   761.94                   872.63                   1072.6                   1081.9                   1083.1                   1081.4                   775.91                   913.94                   1120.9                   1125.8                   1125.0                   1122.6                   779.78                   922.84                   1125.3                   1129.7                   1128.7                   1126.3                   756.18                   878.19                   1100.8                   1107.8                   1107.9                   1105.8                   736.20                   810.97                   989.48                   1002.4                   1007.8                   1008.0
20.000                   1.5000                   1.5000                   6000.0                   2500.0                   75.000                   784.64                   897.90                   1070.2                   1077.5                   1078.1                   1076.3                   796.31                   923.38                   1104.4                   1109.6                   1109.1                   1106.8                   813.73                   953.76                   1128.5                   1131.7                   1130.4                   1127.9                   807.45                   942.87                   1120.2                   1124.0                   1122.9                   1120.5                   788.09                   906.09                   1082.3                   1089.1                   1089.4                   1087.4                   789.90                   909.15                   1086.0                   1092.5                   1092.6                   1090.6                   808.11                   944.40                   1122.0                   1125.7                   1124.6                   1122.1                   813.01                   951.80                   1126.2                   1129.6                   1128.3                   1125.8                   781.77                   910.74                   1103.7                   1109.0                   1108.6                   1106.3                   754.47                   841.69                   1013.2                   1025.0                   1029.0                   1028.6