% Model:              batchmodel_COIL_N_20_COIL_kr_2.25_COIL_kh_1_FUNZ_freq_6000_FUNZ_I_eff_1000.mph
% Version:            COMSOL 6.0.0.318
% Date:               Feb 9 2022, 01:38
% Table:              Tabella 1 - GRIGLIA_T
% COIL_N                 COIL_kr                  COIL_kh                  FUNZ_freq                FUNZ_I_eff               Time (s)                 Temperatura (degC), Point: (0, 0)Temperatura (degC), Point: (15, 0)Temperatura (degC), Point: (27.483, 0)Temperatura (degC), Point: (28.742, 0)Temperatura (degC), Point: (29.497, 0)Temperatura (degC), Point: (29.99, 0)Temperatura (degC), Point: (0, 62.5)Temperatura (degC), Point: (15, 62.5)Temperatura (degC), Point: (27.483, 62.5)Temperatura (degC), Point: (28.742, 62.5)Temperatura (degC), Point: (29.497, 62.5)Temperatura (degC), Point: (29.99, 62.5)Temperatura (degC), Point: (0, 125)Temperatura (degC), Point: (15, 125)Temperatura (degC), Point: (27.483, 125)Temperatura (degC), Point: (28.742, 125)Temperatura (degC), Point: (29.497, 125)Temperatura (degC), Point: (29.99, 125)Temperatura (degC), Point: (0, 187.5)Temperatura (degC), Point: (15, 187.5)Temperatura (degC), Point: (27.483, 187.5)Temperatura (degC), Point: (28.742, 187.5)Temperatura (degC), Point: (29.497, 187.5)Temperatura (degC), Point: (29.99, 187.5)Temperatura (degC), Point: (0, 250)Temperatura (degC), Point: (15, 250)Temperatura (degC), Point: (27.483, 250)Temperatura (degC), Point: (28.742, 250)Temperatura (degC), Point: (29.497, 250)Temperatura (degC), Point: (29.99, 250)Temperatura (degC), Point: (0, 312.5)Temperatura (degC), Point: (15, 312.5)Temperatura (degC), Point: (27.483, 312.5)Temperatura (degC), Point: (28.742, 312.5)Temperatura (degC), Point: (29.497, 312.5)Temperatura (degC), Point: (29.99, 312.5)Temperatura (degC), Point: (0, 375)Temperatura (degC), Point: (15, 375)Temperatura (degC), Point: (27.483, 375)Temperatura (degC), Point: (28.742, 375)Temperatura (degC), Point: (29.497, 375)Temperatura (degC), Point: (29.99, 375)Temperatura (degC), Point: (0, 437.5)Temperatura (degC), Point: (15, 437.5)Temperatura (degC), Point: (27.483, 437.5)Temperatura (degC), Point: (28.742, 437.5)Temperatura (degC), Point: (29.497, 437.5)Temperatura (degC), Point: (29.99, 437.5)Temperatura (degC), Point: (0, 468.75)Temperatura (degC), Point: (15, 468.75)Temperatura (degC), Point: (27.483, 468.75)Temperatura (degC), Point: (28.742, 468.75)Temperatura (degC), Point: (29.497, 468.75)Temperatura (degC), Point: (29.99, 468.75)Temperatura (degC), Point: (0, 492.19)Temperatura (degC), Point: (15, 492.19)Temperatura (degC), Point: (27.483, 492.19)Temperatura (degC), Point: (28.742, 492.19)Temperatura (degC), Point: (29.497, 492.19)Temperatura (degC), Point: (29.99, 492.19)
20.000                   2.2500                   1.0000                   6000.0                   1000.0                   0.0000                   20.000                   20.000                   20.000                   20.000                   20.006                   20.122                   20.000                   20.000                   20.000                   20.000                   20.006                   20.123                   20.000                   20.000                   20.000                   20.000                   20.006                   20.125                   20.000                   20.000                   20.000                   20.000                   20.006                   20.124                   20.000                   20.000                   20.000                   20.000                   20.006                   20.123                   20.000                   20.000                   20.000                   20.000                   20.006                   20.123                   20.000                   20.000                   20.000                   20.000                   20.006                   20.124                   20.000                   20.000                   20.000                   20.000                   20.006                   20.125                   20.000                   20.000                   20.000                   20.000                   20.006                   20.119                   20.000                   20.000                   20.000                   20.000                   20.003                   20.095
20.000                   2.2500                   1.0000                   6000.0                   1000.0                   5.0000                   22.008                   27.580                   55.912                   60.595                   63.976                   65.619                   21.960                   27.392                   54.744                   59.585                   62.920                   64.412                   21.932                   27.319                   54.976                   59.773                   62.908                   64.449                   21.979                   27.499                   55.450                   60.136                   63.480                   65.092                   21.933                   27.274                   54.129                   58.545                   61.424                   62.824                   21.919                   27.202                   53.392                   57.743                   61.197                   62.878                   21.957                   27.375                   54.231                   58.411                   61.112                   62.327                   21.993                   27.529                   55.757                   60.593                   63.719                   65.232                   21.874                   27.179                   55.280                   60.371                   63.689                   65.296                   21.572                   25.594                   43.165                   45.376                   48.073                   49.363
20.000                   2.2500                   1.0000                   6000.0                   1000.0                   10.000                   32.082                   44.803                   84.827                   91.364                   95.326                   97.116                   31.785                   44.226                   84.545                   91.134                   94.707                   96.460                   31.574                   43.884                   83.965                   90.391                   94.333                   96.142                   31.883                   44.553                   85.891                   92.598                   96.579                   98.415                   31.699                   44.061                   84.135                   90.673                   94.536                   96.356                   31.547                   43.611                   82.264                   88.502                   91.850                   93.385                   31.801                   44.309                   85.513                   92.420                   96.701                   98.761                   31.949                   44.571                   84.853                   91.339                   95.282                   97.085                   31.103                   42.977                   80.560                   86.367                   89.890                   91.538                   29.692                   39.595                   70.302                   75.511                   77.793                   78.875
20.000                   2.2500                   1.0000                   6000.0                   1000.0                   15.000                   49.605                   66.892                   114.38                   121.39                   125.69                   127.61                   49.211                   66.601                   115.12                   121.94                   125.48                   127.15                   48.655                   65.795                   114.31                   121.29                   125.39                   127.09                   49.398                   67.080                   117.22                   124.55                   128.94                   130.79                   49.134                   66.501                   115.01                   121.87                   125.76                   127.48                   48.735                   65.649                   112.59                   119.31                   123.00                   124.73                   49.316                   66.857                   116.58                   123.92                   128.16                   130.11                   49.126                   66.350                   115.25                   122.68                   126.64                   128.28                   47.283                   63.477                   108.33                   114.81                   118.66                   120.40                   46.813                   62.248                   102.00                   107.55                   110.29                   111.54
20.000                   2.2500                   1.0000                   6000.0                   1000.0                   20.000                   70.611                   90.114                   140.32                   147.41                   151.77                   153.70                   70.262                   90.019                   141.24                   148.17                   152.02                   153.76                   69.401                   88.881                   140.02                   147.09                   151.30                   153.04                   70.514                   90.516                   142.81                   150.09                   154.51                   156.35                   70.279                   90.061                   141.53                   148.56                   152.68                   154.45                   69.725                   89.061                   138.92                   145.78                   149.81                   151.66                   70.461                   90.360                   142.42                   149.71                   153.97                   155.87                   69.675                   89.163                   140.78                   148.25                   152.32                   153.99                   66.785                   85.025                   132.17                   138.73                   142.67                   144.44                   66.134                   83.352                   123.93                   129.18                   132.03                   133.33
20.000                   2.2500                   1.0000                   6000.0                   1000.0                   25.000                   93.033                   113.47                   163.69                   170.55                   174.80                   176.68                   92.756                   113.41                   164.10                   170.97                   175.23                   177.11                   91.658                   112.11                   162.65                   169.56                   173.85                   175.73                   93.050                   113.87                   165.01                   171.94                   176.25                   178.13                   92.894                   113.59                   164.44                   171.35                   175.63                   177.51                   92.267                   112.66                   162.83                   169.67                   173.93                   175.80                   93.033                   113.77                   164.70                   171.61                   175.90                   177.79                   91.565                   111.94                   162.37                   169.26                   173.54                   175.42                   87.557                   106.52                   153.14                   159.51                   163.48                   165.25                   85.627                   102.54                   139.58                   144.14                   146.94                   148.24
20.000                   2.2500                   1.0000                   6000.0                   1000.0                   30.000                   115.66                   136.79                   187.95                   194.80                   199.11                   200.99                   115.34                   136.55                   188.13                   195.31                   199.95                   201.87                   114.14                   135.17                   185.96                   192.91                   197.31                   199.27                   115.61                   136.80                   187.29                   194.03                   198.26                   200.16                   115.50                   136.60                   187.01                   193.72                   197.86                   199.74                   114.92                   135.99                   187.24                   194.35                   198.90                   200.77                   115.60                   136.78                   187.68                   194.54                   198.87                   200.76                   113.49                   134.30                   184.38                   191.15                   195.65                   197.64                   108.16                   127.41                   173.84                   180.08                   184.00                   185.73                   104.35                   120.48                   154.78                   158.99                   161.80                   163.07
20.000                   2.2500                   1.0000                   6000.0                   1000.0                   35.000                   138.81                   160.67                   214.03                   221.24                   225.76                   227.71                   138.35                   160.15                   213.65                   221.17                   225.97                   227.94                   137.18                   158.82                   211.34                   218.57                   223.09                   225.09                   138.63                   160.37                   212.52                   219.53                   223.89                   225.84                   138.56                   160.27                   212.62                   219.66                   224.01                   225.94                   138.10                   159.87                   213.24                   220.68                   225.40                   227.32                   138.62                   160.40                   213.33                   220.51                   224.94                   226.87                   135.74                   157.10                   208.85                   215.93                   220.58                   222.60                   129.01                   148.71                   196.57                   203.04                   207.07                   208.82                   123.68                   139.89                   174.77                   179.11                   181.97                   183.24
20.000                   2.2500                   1.0000                   6000.0                   1000.0                   40.000                   162.14                   184.75                   240.69                   248.40                   253.18                   255.23                   161.48                   183.91                   239.66                   247.52                   252.41                   254.42                   160.40                   182.66                   237.41                   244.98                   249.64                   251.67                   161.81                   184.16                   238.72                   246.15                   250.73                   252.72                   161.78                   184.16                   239.22                   246.79                   251.45                   253.46                   161.44                   183.95                   239.76                   247.54                   252.39                   254.38                   161.78                   184.24                   239.85                   247.47                   252.03                   254.01                   158.10                   180.05                   234.13                   241.66                   246.43                   248.46                   149.93                   170.15                   219.98                   226.79                   230.98                   232.77                   143.21                   159.80                   196.34                   200.96                   203.89                   205.17
20.000                   2.2500                   1.0000                   6000.0                   1000.0                   45.000                   185.56                   208.94                   267.50                   275.67                   280.72                   282.85                   184.75                   207.85                   265.95                   274.17                   279.18                   281.23                   183.78                   206.74                   263.92                   271.88                   276.72                   278.78                   185.14                   208.17                   265.26                   273.13                   277.92                   279.96                   185.17                   208.29                   266.24                   274.35                   279.32                   281.40                   184.91                   208.20                   266.54                   274.68                   279.69                   281.74                   185.10                   208.31                   266.72                   274.80                   279.53                   281.58                   180.57                   203.17                   259.68                   267.65                   272.56                   274.60                   170.98                   191.78                   243.67                   250.83                   255.20                   257.03                   162.94                   179.95                   218.20                   223.08                   226.08                   227.39
20.000                   2.2500                   1.0000                   6000.0                   1000.0                   50.000                   209.21                   233.44                   294.63                   303.25                   308.53                   310.74                   208.32                   232.26                   292.93                   301.52                   306.73                   308.84                   207.54                   231.43                   291.57                   299.99                   305.10                   307.23                   208.84                   232.76                   292.64                   300.96                   306.00                   308.09                   208.95                   233.05                   294.28                   302.97                   308.26                   310.39                   208.70                   232.90                   293.97                   302.51                   307.72                   309.84                   208.82                   233.00                   294.46                   303.04                   308.07                   310.17                   203.29                   226.71                   285.87                   294.27                   299.38                   301.45                   192.33                   213.85                   268.06                   275.58                   280.17                   282.06                   183.15                   200.70                   240.76                   245.87                   248.96                   250.31
20.000                   2.2500                   1.0000                   6000.0                   1000.0                   55.000                   232.85                   257.94                   321.77                   330.82                   336.35                   338.63                   231.89                   256.68                   319.91                   328.88                   334.28                   336.44                   231.31                   256.12                   319.21                   328.11                   333.49                   335.68                   232.54                   257.34                   320.02                   328.79                   334.09                   336.23                   232.74                   257.81                   322.32                   331.59                   337.19                   339.39                   232.49                   257.60                   321.40                   330.34                   335.76                   337.94                   232.54                   257.68                   322.21                   331.29                   336.60                   338.76                   226.01                   250.25                   312.06                   320.88                   326.20                   328.30                   213.69                   235.92                   292.44                   300.34                   305.14                   307.08                   203.37                   221.44                   263.31                   268.65                   271.84                   273.23
20.000                   2.2500                   1.0000                   6000.0                   1000.0                   60.000                   256.61                   282.56                   348.70                   358.06                   363.75                   366.05                   255.82                   281.57                   347.54                   356.95                   362.59                   364.79                   255.64                   281.51                   347.64                   357.03                   362.73                   364.97                   256.85                   282.71                   348.46                   357.72                   363.33                   365.52                   256.75                   282.75                   349.81                   359.46                   365.28                   367.50                   256.60                   282.69                   349.20                   358.54                   364.20                   366.44                   256.58                   282.72                   349.99                   359.48                   365.02                   367.22                   248.91                   274.04                   338.34                   347.52                   353.05                   355.18                   235.33                   258.33                   317.01                   325.23                   330.23                   332.21                   224.06                   242.70                   286.01                   291.53                   294.82                   296.22
20.000                   2.2500                   1.0000                   6000.0                   1000.0                   65.000                   280.38                   307.21                   375.58                   385.22                   391.06                   393.37                   279.84                   306.57                   375.32                   385.17                   391.07                   393.30                   280.09                   307.05                   376.23                   386.12                   392.15                   394.43                   281.28                   308.24                   377.13                   386.90                   392.82                   395.06                   280.81                   307.73                   377.18                   387.16                   393.18                   395.43                   280.79                   307.87                   377.08                   386.83                   392.73                   395.01                   280.69                   307.84                   377.78                   387.66                   393.42                   395.65                   271.86                   297.88                   364.64                   374.17                   379.90                   382.06                   257.04                   280.81                   341.62                   350.15                   355.34                   357.36                   244.85                   264.07                   308.74                   314.43                   317.81                   319.23
20.000                   2.2500                   1.0000                   6000.0                   1000.0                   70.000                   304.16                   331.85                   402.46                   412.39                   418.38                   420.69                   303.85                   331.56                   403.09                   413.38                   419.55                   421.81                   304.55                   332.59                   404.83                   415.22                   421.57                   423.90                   305.71                   333.77                   405.80                   416.07                   422.30                   424.60                   304.87                   332.71                   404.55                   414.86                   421.08                   423.35                   304.98                   333.04                   404.96                   415.11                   421.27                   423.59                   304.81                   332.95                   405.56                   415.83                   421.81                   424.08                   294.80                   321.72                   390.93                   400.81                   406.75                   408.94                   278.74                   303.29                   366.23                   375.07                   380.46                   382.51                   265.64                   285.44                   331.47                   337.33                   340.80                   342.24
20.000                   2.2500                   1.0000                   6000.0                   1000.0                   75.000                   327.94                   356.50                   429.35                   439.55                   445.69                   448.02                   327.87                   356.56                   430.87                   441.60                   448.03                   450.32                   329.00                   358.13                   433.42                   444.31                   450.99                   453.37                   330.15                   359.31                   434.47                   445.25                   451.79                   454.14                   328.92                   357.69                   431.92                   442.57                   448.97                   451.28                   329.16                   358.22                   432.83                   443.40                   449.80                   452.17                   328.92                   358.07                   433.35                   444.01                   450.20                   452.51                   317.74                   345.57                   417.23                   427.45                   433.60                   435.82                   300.45                   325.78                   390.84                   399.99                   405.57                   407.66                   286.43                   306.80                   354.20                   360.23                   363.79                   365.26