% Model:              batchmodel_COIL_N_20_COIL_kr_3_COIL_kh_1_FUNZ_freq_10000_FUNZ_I_eff_2500.mph
% Version:            COMSOL 6.0.0.318
% Date:               Feb 9 2022, 03:32
% Table:              Tabella 1 - GRIGLIA_T
% COIL_N                 COIL_kr                  COIL_kh                  FUNZ_freq                FUNZ_I_eff               Time (s)                 Temperatura (degC), Point: (0, 0)Temperatura (degC), Point: (15, 0)Temperatura (degC), Point: (28.051, 0)Temperatura (degC), Point: (29.025, 0)Temperatura (degC), Point: (29.61, 0)Temperatura (degC), Point: (29.99, 0)Temperatura (degC), Point: (0, 62.5)Temperatura (degC), Point: (15, 62.5)Temperatura (degC), Point: (28.051, 62.5)Temperatura (degC), Point: (29.025, 62.5)Temperatura (degC), Point: (29.61, 62.5)Temperatura (degC), Point: (29.99, 62.5)Temperatura (degC), Point: (0, 125)Temperatura (degC), Point: (15, 125)Temperatura (degC), Point: (28.051, 125)Temperatura (degC), Point: (29.025, 125)Temperatura (degC), Point: (29.61, 125)Temperatura (degC), Point: (29.99, 125)Temperatura (degC), Point: (0, 187.5)Temperatura (degC), Point: (15, 187.5)Temperatura (degC), Point: (28.051, 187.5)Temperatura (degC), Point: (29.025, 187.5)Temperatura (degC), Point: (29.61, 187.5)Temperatura (degC), Point: (29.99, 187.5)Temperatura (degC), Point: (0, 250)Temperatura (degC), Point: (15, 250)Temperatura (degC), Point: (28.051, 250)Temperatura (degC), Point: (29.025, 250)Temperatura (degC), Point: (29.61, 250)Temperatura (degC), Point: (29.99, 250)Temperatura (degC), Point: (0, 312.5)Temperatura (degC), Point: (15, 312.5)Temperatura (degC), Point: (28.051, 312.5)Temperatura (degC), Point: (29.025, 312.5)Temperatura (degC), Point: (29.61, 312.5)Temperatura (degC), Point: (29.99, 312.5)Temperatura (degC), Point: (0, 375)Temperatura (degC), Point: (15, 375)Temperatura (degC), Point: (28.051, 375)Temperatura (degC), Point: (29.025, 375)Temperatura (degC), Point: (29.61, 375)Temperatura (degC), Point: (29.99, 375)Temperatura (degC), Point: (0, 437.5)Temperatura (degC), Point: (15, 437.5)Temperatura (degC), Point: (28.051, 437.5)Temperatura (degC), Point: (29.025, 437.5)Temperatura (degC), Point: (29.61, 437.5)Temperatura (degC), Point: (29.99, 437.5)Temperatura (degC), Point: (0, 468.75)Temperatura (degC), Point: (15, 468.75)Temperatura (degC), Point: (28.051, 468.75)Temperatura (degC), Point: (29.025, 468.75)Temperatura (degC), Point: (29.61, 468.75)Temperatura (degC), Point: (29.99, 468.75)Temperatura (degC), Point: (0, 492.19)Temperatura (degC), Point: (15, 492.19)Temperatura (degC), Point: (28.051, 492.19)Temperatura (degC), Point: (29.025, 492.19)Temperatura (degC), Point: (29.61, 492.19)Temperatura (degC), Point: (29.99, 492.19)
20.000                   3.0000                   1.0000                   10000                    2500.0                   0.0000                   20.000                   20.000                   20.000                   20.000                   20.128                   20.571                   20.000                   20.000                   20.000                   20.000                   20.128                   20.572                   20.000                   20.000                   20.000                   20.000                   20.128                   20.572                   20.000                   20.000                   20.000                   20.000                   20.128                   20.572                   20.000                   20.000                   20.000                   20.000                   20.128                   20.572                   20.000                   20.000                   20.000                   20.000                   20.128                   20.571                   20.000                   20.000                   20.000                   20.000                   20.128                   20.571                   20.000                   20.000                   20.000                   20.000                   20.125                   20.565                   20.000                   20.000                   20.000                   20.000                   20.118                   20.541                   20.000                   20.000                   20.000                   20.000                   20.100                   20.498
20.000                   3.0000                   1.0000                   10000                    2500.0                   5.0000                   29.281                   66.460                   290.95                   323.91                   343.58                   350.09                   29.066                   65.473                   284.13                   317.54                   338.03                   344.64                   29.062                   65.401                   284.00                   317.46                   337.94                   344.69                   29.035                   65.221                   283.19                   316.77                   337.36                   344.12                   29.148                   65.888                   287.31                   321.86                   343.18                   349.55                   29.287                   66.818                   291.30                   323.94                   343.45                   350.17                   28.890                   64.503                   279.16                   312.23                   332.40                   339.14                   29.368                   66.897                   292.09                   325.75                   346.46                   353.40                   28.728                   63.300                   270.08                   300.74                   319.23                   325.37                   39.970                   74.141                   251.23                   274.91                   289.40                   294.56
20.000                   3.0000                   1.0000                   10000                    2500.0                   10.000                   93.230                   177.23                   517.16                   566.64                   594.81                   602.94                   92.368                   175.43                   511.76                   561.23                   589.30                   597.37                   92.285                   174.90                   509.01                   558.32                   586.34                   594.43                   92.191                   174.85                   509.89                   559.45                   587.59                   595.68                   92.733                   176.13                   513.72                   563.26                   591.37                   599.54                   93.472                   177.92                   519.56                   569.15                   597.40                   605.57                   91.291                   173.06                   504.73                   553.84                   581.70                   589.75                   93.659                   177.82                   514.54                   562.90                   590.34                   598.24                   89.476                   167.24                   473.05                   516.06                   540.70                   547.96                   106.43                   177.15                   422.60                   453.79                   472.18                   477.93
20.000                   3.0000                   1.0000                   10000                    2500.0                   15.000                   188.94                   297.11                   715.81                   787.26                   824.69                   834.19                   187.89                   295.65                   713.43                   784.69                   822.11                   831.62                   187.76                   295.27                   712.84                   784.17                   821.61                   831.12                   187.63                   295.19                   712.96                   784.25                   821.70                   831.22                   188.29                   296.22                   714.73                   786.16                   823.60                   833.11                   189.30                   297.77                   716.97                   788.50                   825.95                   835.45                   186.32                   293.29                   709.39                   780.35                   817.74                   827.25                   188.78                   296.08                   704.90                   773.17                   809.54                   818.86                   180.20                   279.49                   645.73                   699.69                   730.07                   738.36                   188.91                   278.66                   568.97                   606.39                   627.80                   633.98
20.000                   3.0000                   1.0000                   10000                    2500.0                   20.000                   289.44                   410.83                   904.63                   985.43                   1021.2                   1028.8                   288.47                   409.69                   901.29                   982.03                   1018.1                   1025.8                   288.39                   409.53                   901.30                   982.13                   1018.2                   1025.9                   288.23                   409.40                   901.58                   982.55                   1018.7                   1026.4                   288.82                   410.14                   902.70                   983.48                   1019.4                   1027.1                   289.78                   411.38                   906.63                   987.62                   1023.3                   1030.9                   286.88                   407.71                   897.84                   978.91                   1015.2                   1023.0                   287.92                   407.69                   887.92                   968.45                   1005.1                   1013.0                   275.15                   385.77                   793.19                   863.51                   899.21                   907.83                   275.47                   375.47                   687.02                   727.43                   750.39                   756.66
20.000                   3.0000                   1.0000                   10000                    2500.0                   25.000                   385.50                   512.33                   1068.7                   1112.5                   1123.5                   1123.9                   384.62                   510.34                   934.87                   974.69                   993.04                   996.95                   384.58                   510.52                   956.91                   998.59                   1016.3                   1019.8                   384.46                   511.17                   1058.1                   1103.7                   1115.4                   1116.0                   384.93                   511.00                   942.76                   980.90                   997.92                   1001.5                   385.80                   513.10                   1068.4                   1111.0                   1121.7                   1122.0                   383.19                   508.77                   938.64                   980.08                   999.08                   1003.1                   382.49                   507.43                   1000.5                   1049.7                   1065.4                   1067.3                   365.91                   481.15                   914.98                   977.00                   1005.7                   1011.9                   360.00                   463.29                   767.83                   809.99                   833.20                   839.11
20.000                   3.0000                   1.0000                   10000                    2500.0                   30.000                   468.52                   592.77                   1099.4                   1125.6                   1131.5                   1130.9                   467.47                   587.46                   943.30                   971.81                   985.38                   988.24                   467.53                   588.95                   988.87                   1019.5                   1031.1                   1032.8                   467.66                   592.04                   1089.6                   1116.5                   1122.7                   1122.3                   467.87                   589.18                   960.05                   986.91                   998.95                   1001.3                   468.82                   593.61                   1093.8                   1120.2                   1126.2                   1125.7                   466.23                   586.23                   943.05                   971.95                   985.68                   988.55                   464.74                   587.12                   1023.8                   1055.2                   1065.0                   1065.8                   445.52                   559.91                   1034.7                   1079.5                   1092.8                   1094.1                   435.00                   535.34                   833.64                   873.61                   894.58                   899.65
20.000                   3.0000                   1.0000                   10000                    2500.0                   35.000                   539.05                   655.58                   1099.8                   1119.2                   1123.3                   1122.4                   537.76                   648.29                   970.46                   992.41                   1002.4                   1004.2                   537.98                   651.01                   1024.1                   1048.7                   1056.6                   1057.0                   538.38                   655.41                   1094.9                   1114.4                   1118.7                   1117.8                   538.32                   650.90                   993.96                   1015.9                   1024.6                   1025.7                   539.31                   656.28                   1098.6                   1118.1                   1122.2                   1121.3                   536.67                   647.36                   968.85                   990.71                   1000.7                   1002.5                   535.10                   649.88                   1046.5                   1070.6                   1077.5                   1077.5                   514.48                   625.88                   1098.3                   1124.6                   1130.2                   1129.5                   499.90                   595.07                   887.54                   923.80                   942.35                   946.62
20.000                   3.0000                   1.0000                   10000                    2500.0                   40.000                   600.08                   706.95                   1093.4                   1108.5                   1111.4                   1110.4                   598.67                   699.20                   1005.8                   1023.6                   1030.3                   1031.0                   599.07                   702.67                   1051.2                   1069.9                   1074.9                   1074.5                   599.62                   707.48                   1094.3                   1109.1                   1112.0                   1110.9                   599.36                   702.37                   1030.9                   1049.1                   1054.8                   1054.8                   600.28                   707.72                   1095.7                   1110.6                   1113.5                   1112.4                   597.74                   698.55                   1004.4                   1021.8                   1028.6                   1029.3                   596.29                   701.62                   1063.7                   1082.1                   1086.6                   1086.1                   575.78                   682.19                   1112.1                   1128.4                   1131.2                   1130.0                   557.83                   646.41                   932.18                   963.98                   979.98                   983.48
20.000                   3.0000                   1.0000                   10000                    2500.0                   45.000                   651.00                   749.19                   1086.8                   1098.8                   1100.9                   1099.8                   649.62                   741.94                   1046.1                   1061.3                   1065.4                   1064.9                   650.16                   745.59                   1069.9                   1083.4                   1086.3                   1085.4                   650.72                   750.35                   1090.7                   1102.3                   1104.3                   1103.1                   650.37                   745.29                   1063.5                   1077.6                   1080.8                   1079.9                   651.13                   750.09                   1089.6                   1101.4                   1103.5                   1102.3                   648.86                   741.43                   1046.0                   1061.2                   1065.3                   1064.8                   647.59                   744.33                   1073.7                   1087.2                   1090.0                   1089.1                   628.62                   729.01                   1102.6                   1115.0                   1117.1                   1115.8                   608.51                   690.14                   969.52                   995.72                   1008.2                   1010.7
20.000                   3.0000                   1.0000                   10000                    2500.0                   50.000                   691.56                   787.53                   1087.5                   1097.1                   1098.5                   1097.3                   690.37                   780.77                   1075.0                   1086.0                   1088.1                   1087.0                   690.97                   784.49                   1083.0                   1093.1                   1094.7                   1093.5                   691.45                   788.75                   1090.9                   1100.2                   1101.5                   1100.2                   691.10                   784.32                   1082.3                   1092.5                   1094.2                   1093.0                   691.65                   788.08                   1089.1                   1098.6                   1100.0                   1098.7                   689.77                   780.31                   1075.3                   1086.3                   1088.4                   1087.3                   688.68                   782.63                   1082.6                   1092.8                   1094.6                   1093.4                   672.28                   768.55                   1096.8                   1106.7                   1108.1                   1106.7                   651.48                   727.38                   1013.2                   1033.0                   1040.1                   1040.8
20.000                   3.0000                   1.0000                   10000                    2500.0                   55.000                   721.42                   826.14                   1093.4                   1100.9                   1101.6                   1100.2                   720.42                   821.26                   1091.0                   1098.9                   1099.9                   1098.5                   720.96                   824.33                   1093.2                   1100.8                   1101.6                   1100.2                   721.29                   827.09                   1095.5                   1102.8                   1103.5                   1102.0                   721.01                   824.28                   1093.7                   1101.3                   1102.1                   1100.6                   721.34                   826.31                   1094.0                   1101.4                   1102.2                   1100.8                   720.01                   820.78                   1091.1                   1099.1                   1100.0                   1098.6                   719.20                   821.70                   1091.4                   1099.2                   1100.1                   1098.7                   706.57                   806.83                   1095.1                   1103.2                   1104.1                   1102.7                   687.23                   762.38                   1059.9                   1074.0                   1077.4                   1076.6
20.000                   3.0000                   1.0000                   10000                    2500.0                   60.000                   744.74                   863.22                   1100.9                   1106.6                   1106.8                   1105.2                   743.80                   860.40                   1101.6                   1107.4                   1107.6                   1106.0                   744.36                   862.59                   1101.9                   1107.6                   1107.7                   1106.1                   744.57                   863.78                   1101.9                   1107.6                   1107.7                   1106.1                   744.34                   862.51                   1102.3                   1107.9                   1108.1                   1106.5                   744.55                   863.14                   1101.0                   1106.7                   1106.9                   1105.3                   743.44                   859.86                   1101.5                   1107.3                   1107.5                   1105.9                   742.70                   859.29                   1099.7                   1105.6                   1105.8                   1104.2                   732.15                   843.01                   1096.4                   1103.0                   1103.5                   1102.0                   715.20                   801.72                   1091.4                   1100.5                   1101.7                   1100.3
20.000                   3.0000                   1.0000                   10000                    2500.0                   65.000                   766.21                   898.29                   1109.0                   1113.2                   1112.9                   1111.2                   765.31                   897.10                   1109.1                   1113.4                   1113.1                   1111.4                   766.00                   898.51                   1109.5                   1113.8                   1113.4                   1111.7                   766.07                   898.45                   1109.3                   1113.6                   1113.2                   1111.5                   765.90                   898.28                   1109.3                   1113.6                   1113.3                   1111.5                   766.04                   898.08                   1108.8                   1113.1                   1112.8                   1111.1                   764.88                   896.49                   1108.9                   1113.2                   1112.9                   1111.2                   763.85                   894.72                   1107.3                   1111.7                   1111.5                   1109.8                   752.79                   876.74                   1100.0                   1105.3                   1105.4                   1103.8                   737.11                   844.37                   1109.0                   1114.7                   1114.9                   1113.2
20.000                   3.0000                   1.0000                   10000                    2500.0                   70.000                   791.57                   930.93                   1116.7                   1119.8                   1119.0                   1117.2                   790.80                   930.52                   1115.5                   1118.7                   1118.0                   1116.2                   791.73                   931.48                   1116.5                   1119.7                   1118.9                   1117.1                   791.56                   930.76                   1116.7                   1119.8                   1119.1                   1117.3                   791.50                   931.05                   1116.0                   1119.1                   1118.4                   1116.6                   791.57                   930.68                   1116.5                   1119.7                   1118.9                   1117.1                   790.19                   929.86                   1115.3                   1118.5                   1117.8                   1116.0                   788.45                   927.40                   1114.4                   1117.7                   1117.0                   1115.2                   773.70                   907.82                   1105.2                   1109.4                   1109.0                   1107.3                   756.24                   887.74                   1118.5                   1122.5                   1122.2                   1120.5
20.000                   3.0000                   1.0000                   10000                    2500.0                   75.000                   825.26                   960.95                   1123.8                   1126.0                   1124.9                   1123.0                   824.67                   960.59                   1122.0                   1124.3                   1123.3                   1121.4                   825.88                   961.43                   1123.4                   1125.6                   1124.5                   1122.6                   825.32                   960.57                   1123.9                   1126.0                   1125.0                   1123.0                   825.46                   960.86                   1122.7                   1124.9                   1123.9                   1122.0                   825.42                   960.71                   1123.8                   1125.9                   1124.9                   1123.0                   823.80                   959.93                   1121.8                   1124.1                   1123.1                   1121.2                   821.04                   957.16                   1121.2                   1123.5                   1122.5                   1120.6                   800.11                   936.50                   1111.1                   1114.2                   1113.5                   1111.7                   778.22                   928.68                   1127.6                   1130.5                   1129.8                   1127.9