% Model:              batchmodel_COIL_N_20_COIL_kr_3_COIL_kh_1.5_FUNZ_freq_10000_FUNZ_I_eff_2500.mph
% Version:            COMSOL 6.0.0.318
% Date:               Feb 9 2022, 04:12
% Table:              Tabella 1 - GRIGLIA_T
% COIL_N                 COIL_kr                  COIL_kh                  FUNZ_freq                FUNZ_I_eff               Time (s)                 Temperatura (degC), Point: (0, 0)Temperatura (degC), Point: (15, 0)Temperatura (degC), Point: (28.051, 0)Temperatura (degC), Point: (29.025, 0)Temperatura (degC), Point: (29.61, 0)Temperatura (degC), Point: (29.99, 0)Temperatura (degC), Point: (0, 62.5)Temperatura (degC), Point: (15, 62.5)Temperatura (degC), Point: (28.051, 62.5)Temperatura (degC), Point: (29.025, 62.5)Temperatura (degC), Point: (29.61, 62.5)Temperatura (degC), Point: (29.99, 62.5)Temperatura (degC), Point: (0, 125)Temperatura (degC), Point: (15, 125)Temperatura (degC), Point: (28.051, 125)Temperatura (degC), Point: (29.025, 125)Temperatura (degC), Point: (29.61, 125)Temperatura (degC), Point: (29.99, 125)Temperatura (degC), Point: (0, 187.5)Temperatura (degC), Point: (15, 187.5)Temperatura (degC), Point: (28.051, 187.5)Temperatura (degC), Point: (29.025, 187.5)Temperatura (degC), Point: (29.61, 187.5)Temperatura (degC), Point: (29.99, 187.5)Temperatura (degC), Point: (0, 250)Temperatura (degC), Point: (15, 250)Temperatura (degC), Point: (28.051, 250)Temperatura (degC), Point: (29.025, 250)Temperatura (degC), Point: (29.61, 250)Temperatura (degC), Point: (29.99, 250)Temperatura (degC), Point: (0, 312.5)Temperatura (degC), Point: (15, 312.5)Temperatura (degC), Point: (28.051, 312.5)Temperatura (degC), Point: (29.025, 312.5)Temperatura (degC), Point: (29.61, 312.5)Temperatura (degC), Point: (29.99, 312.5)Temperatura (degC), Point: (0, 375)Temperatura (degC), Point: (15, 375)Temperatura (degC), Point: (28.051, 375)Temperatura (degC), Point: (29.025, 375)Temperatura (degC), Point: (29.61, 375)Temperatura (degC), Point: (29.99, 375)Temperatura (degC), Point: (0, 437.5)Temperatura (degC), Point: (15, 437.5)Temperatura (degC), Point: (28.051, 437.5)Temperatura (degC), Point: (29.025, 437.5)Temperatura (degC), Point: (29.61, 437.5)Temperatura (degC), Point: (29.99, 437.5)Temperatura (degC), Point: (0, 468.75)Temperatura (degC), Point: (15, 468.75)Temperatura (degC), Point: (28.051, 468.75)Temperatura (degC), Point: (29.025, 468.75)Temperatura (degC), Point: (29.61, 468.75)Temperatura (degC), Point: (29.99, 468.75)Temperatura (degC), Point: (0, 492.19)Temperatura (degC), Point: (15, 492.19)Temperatura (degC), Point: (28.051, 492.19)Temperatura (degC), Point: (29.025, 492.19)Temperatura (degC), Point: (29.61, 492.19)Temperatura (degC), Point: (29.99, 492.19)
20.000                   3.0000                   1.5000                   10000                    2500.0                   0.0000                   20.000                   20.000                   20.000                   20.000                   20.129                   20.575                   20.000                   20.000                   20.000                   20.000                   20.129                   20.575                   20.000                   20.000                   20.000                   20.000                   20.129                   20.575                   20.000                   20.000                   20.000                   20.000                   20.129                   20.575                   20.000                   20.000                   20.000                   20.000                   20.129                   20.575                   20.000                   20.000                   20.000                   20.000                   20.129                   20.575                   20.000                   20.000                   20.000                   20.000                   20.129                   20.575                   20.000                   20.000                   20.000                   20.000                   20.126                   20.568                   20.000                   20.000                   20.000                   20.000                   20.118                   20.541                   20.000                   20.000                   20.000                   20.000                   20.099                   20.490
20.000                   3.0000                   1.5000                   10000                    2500.0                   5.0000                   29.734                   64.392                   278.93                   311.98                   332.03                   338.72                   29.663                   64.416                   281.41                   315.25                   335.93                   342.70                   29.620                   64.229                   283.87                   318.78                   340.32                   347.40                   29.642                   64.330                   283.45                   318.07                   339.13                   346.07                   29.686                   64.495                   279.64                   312.79                   332.82                   339.54                   29.697                   64.553                   280.20                   313.47                   333.64                   340.36                   29.696                   64.471                   279.81                   313.21                   333.53                   340.25                   29.712                   64.766                   283.25                   315.35                   334.01                   340.52                   29.283                   62.344                   265.08                   295.07                   312.92                   318.73                   38.592                   72.257                   251.95                   275.15                   289.28                   294.13
20.000                   3.0000                   1.5000                   10000                    2500.0                   10.000                   89.054                   171.53                   503.63                   552.24                   579.99                   588.05                   89.074                   171.82                   502.87                   550.78                   578.02                   586.13                   89.065                   171.99                   504.89                   553.66                   581.18                   588.96                   89.042                   171.78                   503.66                   552.21                   579.48                   587.37                   89.098                   171.73                   503.37                   552.13                   580.13                   588.20                   89.146                   171.79                   502.67                   551.04                   578.68                   586.70                   88.961                   171.33                   502.20                   550.66                   578.44                   586.63                   88.966                   171.17                   497.37                   543.99                   570.33                   577.82                   86.087                   162.85                   457.60                   498.99                   523.44                   530.77                   97.935                   170.05                   408.35                   437.67                   455.37                   461.15
20.000                   3.0000                   1.5000                   10000                    2500.0                   15.000                   183.68                   293.56                   717.90                   787.54                   826.42                   836.91                   183.73                   293.64                   716.43                   785.84                   823.67                   833.78                   183.84                   293.93                   715.65                   784.03                   821.44                   831.81                   183.61                   293.34                   715.98                   786.42                   825.22                   835.42                   183.74                   293.61                   716.43                   785.61                   824.32                   834.77                   183.75                   293.54                   715.77                   784.91                   822.80                   833.03                   183.24                   292.57                   707.70                   772.74                   808.54                   818.42                   182.14                   289.90                   697.48                   761.37                   796.29                   805.76                   174.99                   274.47                   633.89                   684.12                   711.71                   719.63                   184.24                   274.56                   569.42                   606.75                   628.89                   635.17
20.000                   3.0000                   1.5000                   10000                    2500.0                   20.000                   286.32                   409.52                   909.87                   990.88                   1026.5                   1033.9                   286.16                   409.14                   908.27                   989.75                   1025.7                   1033.2                   286.43                   409.58                   906.54                   987.31                   1023.1                   1030.6                   285.97                   408.73                   905.78                   987.14                   1023.1                   1030.7                   286.28                   409.36                   907.82                   988.85                   1024.6                   1032.1                   286.22                   409.18                   906.84                   987.94                   1023.8                   1031.3                   285.26                   407.33                   898.57                   980.41                   1017.0                   1024.8                   282.33                   402.40                   880.84                   962.73                   1000.2                   1008.4                   270.51                   380.74                   781.99                   852.24                   888.36                   897.10                   273.64                   373.83                   685.46                   725.56                   748.21                   754.41
20.000                   3.0000                   1.5000                   10000                    2500.0                   25.000                   383.97                   510.83                   929.02                   968.06                   986.33                   990.28                   383.64                   511.63                   1055.6                   1099.4                   1110.7                   1111.3                   384.00                   510.60                   922.10                   960.88                   979.09                   983.04                   383.39                   510.69                   1007.8                   1054.4                   1068.9                   1070.6                   383.84                   510.83                   935.37                   973.14                   990.34                   993.99                   383.70                   510.31                   953.64                   1000.3                   1021.2                   1025.4                   382.34                   508.56                   940.54                   980.49                   998.43                   1002.2                   377.84                   503.80                   1084.9                   1128.3                   1138.7                   1139.0                   361.76                   476.52                   905.42                   967.25                   996.22                   1002.6                   357.92                   461.01                   762.62                   803.69                   826.50                   832.34
20.000                   3.0000                   1.5000                   10000                    2500.0                   30.000                   467.19                   587.48                   941.17                   969.97                   983.70                   986.59                   467.17                   592.09                   1084.3                   1112.0                   1118.5                   1118.1                   467.18                   587.26                   941.94                   971.04                   984.92                   987.85                   466.75                   590.10                   1046.3                   1077.5                   1086.2                   1086.5                   467.13                   588.46                   955.65                   982.96                   995.41                   997.93                   466.65                   586.35                   956.41                   989.55                   1005.2                   1008.4                   465.54                   586.80                   957.21                   984.29                   996.48                   998.91                   460.77                   585.92                   1103.8                   1129.7                   1135.4                   1134.8                   441.63                   555.42                   967.00                   1007.7                   1024.2                   1027.2                   432.41                   532.20                   826.89                   866.67                   887.66                   892.77
20.000                   3.0000                   1.5000                   10000                    2500.0                   35.000                   537.74                   648.38                   968.71                   990.52                   1000.5                   1002.3                   538.16                   654.98                   1089.9                   1110.3                   1114.9                   1114.1                   537.71                   648.18                   972.05                   994.55                   1004.7                   1006.6                   537.61                   652.73                   1067.4                   1090.2                   1096.0                   1095.6                   537.86                   650.15                   989.51                   1011.6                   1020.6                   1021.9                   536.93                   646.40                   970.68                   994.96                   1006.2                   1008.4                   536.42                   649.21                   992.29                   1014.1                   1022.7                   1023.9                   531.87                   650.29                   1104.3                   1123.5                   1127.4                   1126.5                   510.94                   621.26                   1038.7                   1069.8                   1079.0                   1079.5                   497.10                   591.94                   886.05                   923.44                   942.56                   946.97
20.000                   3.0000                   1.5000                   10000                    2500.0                   40.000                   597.93                   698.47                   1004.6                   1022.0                   1028.7                   1029.4                   598.65                   705.53                   1086.7                   1102.7                   1106.0                   1105.1                   597.90                   698.42                   1007.6                   1026.1                   1033.0                   1033.7                   598.08                   703.55                   1075.8                   1092.9                   1096.8                   1096.1                   598.22                   700.73                   1026.4                   1045.0                   1050.9                   1051.0                   596.95                   695.99                   997.16                   1016.0                   1023.6                   1024.6                   597.07                   700.48                   1031.8                   1050.2                   1055.8                   1055.8                   592.90                   702.07                   1098.6                   1113.7                   1116.6                   1115.5                   571.84                   676.73                   1084.1                   1104.7                   1109.3                   1108.5                   554.32                   642.91                   933.06                   965.64                   981.99                   985.57
20.000                   3.0000                   1.5000                   10000                    2500.0                   45.000                   648.85                   740.74                   1047.6                   1062.9                   1067.0                   1066.4                   649.69                   747.70                   1084.0                   1096.5                   1098.8                   1097.7                   648.78                   740.79                   1047.5                   1062.9                   1067.1                   1066.6                   649.17                   746.04                   1079.3                   1092.2                   1094.7                   1093.7                   649.23                   743.32                   1060.3                   1074.7                   1078.1                   1077.3                   647.80                   737.99                   1034.2                   1050.1                   1055.0                   1054.8                   648.41                   743.53                   1064.5                   1078.5                   1081.6                   1080.8                   644.70                   744.83                   1090.8                   1102.9                   1105.0                   1103.8                   624.90                   723.64                   1094.9                   1108.9                   1111.5                   1110.4                   605.01                   686.95                   964.93                   991.03                   1003.7                   1006.3
20.000                   3.0000                   1.5000                   10000                    2500.0                   50.000                   689.70                   780.47                   1075.6                   1086.7                   1088.8                   1087.6                   690.51                   786.38                   1087.0                   1096.7                   1098.3                   1097.0                   689.62                   780.14                   1074.8                   1085.9                   1088.0                   1087.0                   690.09                   785.10                   1085.9                   1095.7                   1097.3                   1096.0                   690.11                   782.95                   1080.9                   1091.3                   1093.1                   1091.9                   688.73                   776.88                   1066.7                   1078.5                   1081.0                   1080.1                   689.58                   783.52                   1083.3                   1093.4                   1095.1                   1093.8                   686.41                   783.44                   1089.4                   1099.1                   1100.6                   1099.3                   668.99                   763.72                   1096.1                   1106.5                   1108.0                   1106.7                   648.15                   723.93                   999.73                   1019.8                   1028.0                   1029.0
20.000                   3.0000                   1.5000                   10000                    2500.0                   55.000                   720.18                   820.62                   1092.1                   1100.0                   1100.9                   1099.5                   720.79                   824.81                   1093.4                   1100.9                   1101.7                   1100.3                   720.02                   820.17                   1091.6                   1099.5                   1100.4                   1099.0                   720.48                   823.98                   1093.6                   1101.1                   1101.9                   1100.5                   720.49                   822.76                   1093.8                   1101.4                   1102.2                   1100.8                   719.28                   817.04                   1087.7                   1096.2                   1097.3                   1095.9                   720.19                   823.43                   1094.9                   1102.4                   1103.1                   1101.7                   717.63                   821.31                   1092.9                   1100.6                   1101.4                   1100.0                   703.86                   802.25                   1095.6                   1103.8                   1104.7                   1103.3                   684.19                   758.56                   1041.4                   1056.3                   1060.7                   1060.4
20.000                   3.0000                   1.5000                   10000                    2500.0                   60.000                   743.62                   859.98                   1101.7                   1107.5                   1107.7                   1106.1                   744.01                   862.36                   1101.5                   1107.2                   1107.4                   1105.8                   743.31                   859.63                   1101.6                   1107.4                   1107.6                   1106.0                   743.77                   861.93                   1101.8                   1107.5                   1107.7                   1106.1                   743.78                   861.63                   1102.3                   1108.0                   1108.2                   1106.6                   742.69                   857.16                   1100.2                   1106.2                   1106.4                   1104.9                   743.64                   862.18                   1102.8                   1108.5                   1108.6                   1107.0                   741.39                   858.13                   1099.5                   1105.5                   1105.8                   1104.2                   730.39                   839.14                   1096.3                   1103.0                   1103.5                   1102.0                   712.76                   794.89                   1078.7                   1089.2                   1091.0                   1089.8
20.000                   3.0000                   1.5000                   10000                    2500.0                   65.000                   765.27                   896.75                   1109.2                   1113.5                   1113.2                   1111.5                   765.60                   897.87                   1109.6                   1113.9                   1113.5                   1111.8                   764.86                   896.55                   1109.3                   1113.6                   1113.3                   1111.6                   765.37                   897.65                   1109.6                   1113.9                   1113.6                   1111.9                   765.41                   897.86                   1109.6                   1113.9                   1113.6                   1111.9                   764.23                   895.03                   1108.6                   1113.0                   1112.7                   1111.0                   765.32                   898.15                   1109.9                   1114.2                   1113.8                   1112.1                   762.60                   893.05                   1107.2                   1111.7                   1111.5                   1109.8                   751.12                   873.60                   1099.6                   1105.0                   1105.2                   1103.6                   734.59                   835.73                   1101.1                   1107.9                   1108.4                   1106.8
20.000                   3.0000                   1.5000                   10000                    2500.0                   70.000                   791.33                   930.20                   1116.0                   1119.2                   1118.5                   1116.7                   791.93                   930.77                   1117.2                   1120.3                   1119.6                   1117.7                   791.06                   930.11                   1116.1                   1119.3                   1118.6                   1116.8                   791.63                   930.61                   1117.0                   1120.1                   1119.4                   1117.6                   791.74                   930.90                   1116.5                   1119.7                   1119.0                   1117.1                   790.35                   929.37                   1115.5                   1118.8                   1118.1                   1116.3                   791.60                   930.93                   1116.7                   1119.9                   1119.1                   1117.3                   787.37                   925.60                   1114.8                   1118.1                   1117.5                   1115.6                   771.68                   905.12                   1104.6                   1108.9                   1108.6                   1107.0                   753.42                   878.28                   1113.7                   1118.2                   1118.0                   1116.3
20.000                   3.0000                   1.5000                   10000                    2500.0                   75.000                   826.70                   960.51                   1122.9                   1125.2                   1124.1                   1122.2                   827.67                   961.00                   1124.3                   1126.4                   1125.4                   1123.4                   826.70                   960.45                   1123.0                   1125.2                   1124.2                   1122.3                   827.33                   960.81                   1124.1                   1126.2                   1125.2                   1123.3                   827.55                   960.98                   1123.4                   1125.7                   1124.6                   1122.7                   825.95                   960.16                   1122.3                   1124.6                   1123.6                   1121.7                   827.25                   960.81                   1123.6                   1125.8                   1124.8                   1122.8                   821.03                   955.63                   1121.9                   1124.2                   1123.2                   1121.3                   798.38                   934.04                   1110.5                   1113.7                   1113.1                   1111.3                   774.79                   918.92                   1122.9                   1125.9                   1125.2                   1123.4