% Model:              batchmodel_COIL_N_20_COIL_kr_2.25_COIL_kh_1.5_FUNZ_freq_2000_FUNZ_I_eff_2500.mph
% Version:            COMSOL 6.0.0.318
% Date:               Feb 9 2022, 02:10
% Table:              Tabella 1 - GRIGLIA_T
% COIL_N                 COIL_kr                  COIL_kh                  FUNZ_freq                FUNZ_I_eff               Time (s)                 Temperatura (degC), Point: (0, 0)Temperatura (degC), Point: (15, 0)Temperatura (degC), Point: (25.641, 0)Temperatura (degC), Point: (27.821, 0)Temperatura (degC), Point: (29.128, 0)Temperatura (degC), Point: (29.99, 0)Temperatura (degC), Point: (0, 62.5)Temperatura (degC), Point: (15, 62.5)Temperatura (degC), Point: (25.641, 62.5)Temperatura (degC), Point: (27.821, 62.5)Temperatura (degC), Point: (29.128, 62.5)Temperatura (degC), Point: (29.99, 62.5)Temperatura (degC), Point: (0, 125)Temperatura (degC), Point: (15, 125)Temperatura (degC), Point: (25.641, 125)Temperatura (degC), Point: (27.821, 125)Temperatura (degC), Point: (29.128, 125)Temperatura (degC), Point: (29.99, 125)Temperatura (degC), Point: (0, 187.5)Temperatura (degC), Point: (15, 187.5)Temperatura (degC), Point: (25.641, 187.5)Temperatura (degC), Point: (27.821, 187.5)Temperatura (degC), Point: (29.128, 187.5)Temperatura (degC), Point: (29.99, 187.5)Temperatura (degC), Point: (0, 250)Temperatura (degC), Point: (15, 250)Temperatura (degC), Point: (25.641, 250)Temperatura (degC), Point: (27.821, 250)Temperatura (degC), Point: (29.128, 250)Temperatura (degC), Point: (29.99, 250)Temperatura (degC), Point: (0, 312.5)Temperatura (degC), Point: (15, 312.5)Temperatura (degC), Point: (25.641, 312.5)Temperatura (degC), Point: (27.821, 312.5)Temperatura (degC), Point: (29.128, 312.5)Temperatura (degC), Point: (29.99, 312.5)Temperatura (degC), Point: (0, 375)Temperatura (degC), Point: (15, 375)Temperatura (degC), Point: (25.641, 375)Temperatura (degC), Point: (27.821, 375)Temperatura (degC), Point: (29.128, 375)Temperatura (degC), Point: (29.99, 375)Temperatura (degC), Point: (0, 437.5)Temperatura (degC), Point: (15, 437.5)Temperatura (degC), Point: (25.641, 437.5)Temperatura (degC), Point: (27.821, 437.5)Temperatura (degC), Point: (29.128, 437.5)Temperatura (degC), Point: (29.99, 437.5)Temperatura (degC), Point: (0, 468.75)Temperatura (degC), Point: (15, 468.75)Temperatura (degC), Point: (25.641, 468.75)Temperatura (degC), Point: (27.821, 468.75)Temperatura (degC), Point: (29.128, 468.75)Temperatura (degC), Point: (29.99, 468.75)Temperatura (degC), Point: (0, 492.19)Temperatura (degC), Point: (15, 492.19)Temperatura (degC), Point: (25.641, 492.19)Temperatura (degC), Point: (27.821, 492.19)Temperatura (degC), Point: (29.128, 492.19)Temperatura (degC), Point: (29.99, 492.19)
20.000                   2.2500                   1.5000                   2000.0                   2500.0                   0.0000                   20.000                   20.000                   20.000                   20.000                   20.025                   20.134                   20.000                   20.000                   20.000                   20.000                   20.025                   20.135                   20.000                   20.000                   20.000                   20.000                   20.025                   20.135                   20.000                   20.000                   20.000                   20.000                   20.025                   20.135                   20.000                   20.000                   20.000                   20.000                   20.025                   20.134                   20.000                   20.000                   20.000                   20.000                   20.025                   20.134                   20.000                   20.000                   20.000                   20.000                   20.025                   20.135                   20.000                   20.000                   20.000                   20.000                   20.025                   20.135                   20.000                   20.000                   20.000                   20.000                   20.023                   20.129                   20.000                   20.000                   20.000                   20.000                   20.012                   20.098
20.000                   2.2500                   1.5000                   2000.0                   2500.0                   5.0000                   24.587                   39.157                   97.477                   119.27                   133.38                   138.69                   24.563                   39.061                   97.019                   118.81                   133.47                   139.07                   24.589                   39.211                   98.090                   120.42                   135.30                   140.95                   24.568                   39.130                   97.674                   119.60                   134.08                   139.64                   24.544                   38.986                   97.048                   119.14                   134.15                   139.53                   24.561                   39.063                   97.224                   119.08                   133.64                   139.20                   24.571                   39.125                   97.449                   119.16                   133.46                   139.07                   24.542                   39.053                   97.303                   119.14                   133.62                   139.23                   23.797                   36.164                   88.062                   108.63                   122.74                   128.08                   23.497                   32.488                   67.267                   80.802                   89.669                   93.410
20.000                   2.2500                   1.5000                   2000.0                   2500.0                   10.000                   50.157                   83.317                   165.84                   192.13                   208.91                   215.01                   50.231                   83.689                   167.03                   193.39                   210.02                   215.97                   50.186                   83.561                   167.31                   194.19                   210.85                   216.70                   50.186                   83.677                   167.51                   194.06                   210.93                   216.92                   50.019                   83.165                   166.10                   192.26                   208.66                   214.69                   50.166                   83.479                   166.27                   192.50                   209.35                   215.33                   50.150                   83.494                   166.61                   192.96                   209.78                   215.83                   49.812                   82.972                   165.72                   191.77                   208.26                   214.17                   45.850                   75.461                   151.21                   175.29                   190.41                   195.86                   45.282                   67.867                   120.56                   136.32                   145.89                   149.79
20.000                   2.2500                   1.5000                   2000.0                   2500.0                   15.000                   93.486                   136.15                   232.83                   262.48                   281.19                   287.49                   93.717                   136.63                   233.68                   263.40                   282.14                   288.45                   93.442                   136.21                   233.16                   262.85                   281.49                   287.80                   93.507                   136.38                   233.47                   263.20                   281.95                   288.26                   93.257                   135.88                   232.42                   262.01                   280.68                   286.96                   93.489                   136.20                   232.83                   262.43                   281.10                   287.39                   93.436                   136.22                   233.18                   262.94                   281.73                   288.04                   92.148                   134.38                   229.91                   259.17                   277.63                   283.87                   84.033                   122.03                   208.08                   234.20                   250.76                   256.55                   78.144                   107.34                   167.37                   184.27                   195.01                   199.11
20.000                   2.2500                   1.5000                   2000.0                   2500.0                   20.000                   142.19                   191.62                   301.04                   334.54                   355.32                   361.99                   142.41                   191.86                   300.97                   334.38                   355.11                   361.76                   142.00                   191.37                   300.31                   333.51                   353.99                   360.67                   142.08                   191.49                   300.48                   333.82                   354.52                   361.19                   141.81                   191.07                   299.88                   333.22                   353.99                   360.59                   142.10                   191.44                   300.38                   333.69                   354.34                   361.00                   142.04                   191.49                   300.82                   334.36                   355.19                   361.86                   139.45                   188.02                   295.05                   327.80                   348.17                   354.72                   127.10                   170.76                   266.39                   295.26                   313.31                   319.39                   116.69                   150.40                   217.08                   235.52                   247.03                   251.25
20.000                   2.2500                   1.5000                   2000.0                   2500.0                   25.000                   194.60                   248.83                   369.76                   407.20                   429.80                   436.69                   194.64                   248.70                   368.84                   405.96                   428.46                   435.38                   194.26                   248.36                   368.67                   405.76                   428.28                   435.19                   194.31                   248.38                   368.66                   405.88                   428.51                   435.43                   194.07                   248.12                   368.50                   405.83                   428.39                   435.24                   194.38                   248.46                   368.78                   405.91                   428.38                   435.27                   194.33                   248.49                   369.12                   406.46                   429.07                   436.01                   190.17                   243.24                   361.00                   397.30                   419.34                   426.13                   173.78                   221.45                   326.73                   359.05                   378.91                   385.14                   159.37                   195.83                   267.62                   287.53                   299.92                   304.29
20.000                   2.2500                   1.5000                   2000.0                   2500.0                   30.000                   247.62                   306.39                   439.01                   480.40                   504.90                   512.05                   247.43                   305.77                   436.52                   477.05                   501.25                   508.46                   247.16                   305.67                   436.80                   477.20                   501.42                   508.58                   247.14                   305.57                   436.72                   477.50                   502.04                   509.25                   246.98                   305.55                   437.52                   478.85                   503.31                   510.36                   247.28                   305.82                   437.25                   477.91                   502.11                   509.26                   247.23                   305.81                   437.41                   478.38                   502.79                   510.04                   241.47                   298.77                   427.03                   466.71                   490.42                   497.42                   221.40                   273.13                   389.43                   425.82                   447.72                   454.14                   204.97                   244.16                   321.99                   343.71                   357.10                   361.62
20.000                   2.2500                   1.5000                   2000.0                   2500.0                   35.000                   300.12                   362.90                   505.53                   550.16                   576.08                   583.42                   299.63                   361.74                   501.74                   545.10                   570.59                   577.97                   299.55                   361.98                   502.74                   545.88                   571.25                   578.60                   299.46                   361.75                   502.36                   546.17                   572.01                   579.36                   299.39                   361.90                   503.38                   547.77                   573.67                   580.86                   299.67                   362.12                   503.27                   546.96                   572.46                   579.80                   299.61                   362.10                   503.46                   547.65                   573.40                   580.83                   292.28                   353.25                   490.20                   532.48                   557.38                   564.55                   268.77                   323.81                   447.91                   486.77                   510.14                   516.83                   248.98                   290.31                   372.67                   395.88                   410.17                   414.83
20.000                   2.2500                   1.5000                   2000.0                   2500.0                   40.000                   351.92                   418.39                   570.30                   618.15                   645.45                   652.92                   351.14                   416.76                   565.61                   611.90                   638.68                   646.19                   351.26                   417.32                   567.23                   613.15                   639.61                   647.08                   351.11                   416.98                   566.60                   613.44                   640.51                   647.96                   351.12                   417.25                   567.53                   614.83                   642.08                   649.37                   351.36                   417.43                   567.71                   614.44                   641.23                   648.70                   351.29                   417.38                   567.85                   615.24                   642.26                   649.81                   342.52                   406.94                   552.29                   597.22                   623.33                   630.66                   315.83                   373.98                   505.41                   546.49                   571.11                   578.02                   293.19                   336.51                   423.01                   447.48                   462.46                   467.20
20.000                   2.2500                   1.5000                   2000.0                   2500.0                   45.000                   402.40                   472.00                   631.97                   683.06                   711.72                   719.22                   401.36                   470.03                   627.12                   676.60                   704.77                   712.32                   401.68                   470.86                   629.12                   677.98                   705.47                   712.97                   401.49                   470.48                   628.33                   678.28                   706.56                   714.05                   401.54                   470.73                   628.70                   678.69                   707.19                   714.52                   401.76                   470.92                   629.35                   679.17                   707.27                   714.78                   401.65                   470.79                   629.23                   679.87                   708.05                   715.59                   391.70                   459.19                   612.62                   660.41                   687.82                   695.30                   362.31                   423.25                   561.51                   604.53                   630.02                   637.04                   338.03                   383.08                   473.13                   498.46                   513.77                   518.48
20.000                   2.2500                   1.5000                   2000.0                   2500.0                   50.000                   449.43                   520.95                   685.63                   741.93                   773.56                   781.25                   448.23                   518.91                   681.17                   736.01                   767.21                   774.93                   448.71                   519.88                   683.30                   738.09                   768.95                   776.64                   448.51                   519.49                   682.48                   737.77                   769.09                   776.79                   448.58                   519.71                   682.68                   737.89                   769.31                   776.90                   448.76                   519.88                   683.25                   738.49                   769.72                   777.42                   448.63                   519.72                   683.14                   738.96                   770.26                   777.98                   437.69                   507.20                   665.30                   716.83                   746.41                   753.98                   406.31                   469.34                   612.77                   658.27                   684.33                   691.18                   378.91                   425.41                   518.80                   545.20                   560.85                   565.44
20.000                   2.2500                   1.5000                   2000.0                   2500.0                   55.000                   494.72                   567.54                   736.79                   799.24                   834.08                   841.93                   493.39                   565.48                   732.53                   793.69                   828.13                   835.97                   494.03                   566.59                   734.98                   796.89                   831.54                   839.39                   493.82                   566.20                   734.14                   795.83                   830.48                   838.35                   493.90                   566.39                   734.34                   795.97                   830.52                   838.35                   494.05                   566.54                   734.76                   796.54                   831.18                   839.03                   493.89                   566.35                   734.69                   796.68                   831.46                   839.33                   482.06                   553.01                   715.10                   771.28                   803.28                   810.90                   448.96                   513.62                   660.89                   708.82                   735.43                   742.03                   418.18                   465.97                   562.17                   589.51                   605.38                   609.81
20.000                   2.2500                   1.5000                   2000.0                   2500.0                   60.000                   536.76                   609.66                   791.03                   861.14                   896.68                   904.05                   535.32                   607.40                   784.32                   852.83                   887.80                   895.14                   536.16                   608.88                   788.99                   858.63                   894.09                   901.49                   535.94                   608.45                   787.90                   857.50                   892.96                   900.32                   536.02                   608.63                   788.35                   858.14                   893.11                   900.41                   536.17                   608.83                   789.39                   859.47                   894.95                   902.30                   535.96                   608.58                   788.90                   858.94                   894.75                   902.13                   523.37                   594.57                   764.36                   829.33                   863.29                   870.73                   488.55                   553.53                   699.82                   748.44                   776.06                   782.69                   456.53                   505.11                   601.05                   627.81                   643.03                   647.22
20.000                   2.2500                   1.5000                   2000.0                   2500.0                   65.000                   576.28                   649.14                   847.90                   921.37                   955.80                   962.22                   574.75                   646.73                   839.97                   912.13                   946.21                   952.67                   575.78                   648.53                   846.23                   919.43                   953.86                   960.32                   575.55                   648.05                   844.63                   917.77                   952.21                   958.64                   575.63                   648.22                   845.04                   918.34                   952.29                   958.66                   575.77                   648.45                   846.38                   919.99                   954.43                   960.84                   575.54                   648.20                   846.02                   919.62                   954.39                   960.83                   562.34                   633.52                   816.87                   886.97                   921.08                   927.89                   525.98                   590.41                   736.66                   787.84                   816.32                   822.80                   492.38                   541.00                   635.84                   662.23                   677.15                   681.10
20.000                   2.2500                   1.5000                   2000.0                   2500.0                   70.000                   613.51                   686.22                   907.16                   980.08                   1011.8                   1016.8                   611.92                   683.70                   899.11                   971.58                   1003.5                   1008.7                   613.13                   685.80                   906.38                   979.37                   1011.1                   1016.2                   612.88                   685.25                   904.04                   976.76                   1008.5                   1013.6                   612.96                   685.38                   904.15                   976.73                   1008.4                   1013.5                   613.10                   685.65                   905.52                   978.32                   1010.0                   1015.1                   612.87                   685.44                   905.77                   978.88                   1010.7                   1015.8                   599.21                   670.08                   872.31                   944.26                   976.86                   982.61                   561.45                   624.54                   771.61                   827.06                   856.22                   862.43                   525.94                   573.93                   666.92                   693.12                   708.06                   711.78
20.000                   2.2500                   1.5000                   2000.0                   2500.0                   75.000                   645.42                   716.02                   928.93                   987.63                   1012.8                   1016.4                   643.92                   714.08                   926.67                   986.13                   1011.7                   1015.4                   645.60                   718.39                   949.48                   1011.2                   1034.8                   1037.5                   645.23                   717.00                   939.87                   1000.3                   1024.9                   1028.0                   645.51                   718.78                   959.29                   1022.5                   1045.1                   1047.2                   645.85                   720.63                   979.48                   1041.5                   1062.1                   1063.5                   645.36                   718.58                   958.97                   1022.6                   1045.5                   1047.7                   631.21                   700.22                   902.91                   965.04                   992.74                   997.18                   592.48                   653.35                   800.28                   853.41                   880.51                   885.98                   555.96                   601.85                   689.18                   713.10                   726.78                   730.06