% Model:              batchmodel_COIL_N_20_COIL_kr_3_COIL_kh_2_FUNZ_freq_10000_FUNZ_I_eff_1000.mph
% Version:            COMSOL 6.0.0.318
% Date:               Feb 9 2022, 04:06
% Table:              Tabella 1 - GRIGLIA_T
% COIL_N                 COIL_kr                  COIL_kh                  FUNZ_freq                FUNZ_I_eff               Time (s)                 Temperatura (degC), Point: (0, 0)Temperatura (degC), Point: (15, 0)Temperatura (degC), Point: (28.051, 0)Temperatura (degC), Point: (29.025, 0)Temperatura (degC), Point: (29.61, 0)Temperatura (degC), Point: (29.99, 0)Temperatura (degC), Point: (0, 62.5)Temperatura (degC), Point: (15, 62.5)Temperatura (degC), Point: (28.051, 62.5)Temperatura (degC), Point: (29.025, 62.5)Temperatura (degC), Point: (29.61, 62.5)Temperatura (degC), Point: (29.99, 62.5)Temperatura (degC), Point: (0, 125)Temperatura (degC), Point: (15, 125)Temperatura (degC), Point: (28.051, 125)Temperatura (degC), Point: (29.025, 125)Temperatura (degC), Point: (29.61, 125)Temperatura (degC), Point: (29.99, 125)Temperatura (degC), Point: (0, 187.5)Temperatura (degC), Point: (15, 187.5)Temperatura (degC), Point: (28.051, 187.5)Temperatura (degC), Point: (29.025, 187.5)Temperatura (degC), Point: (29.61, 187.5)Temperatura (degC), Point: (29.99, 187.5)Temperatura (degC), Point: (0, 250)Temperatura (degC), Point: (15, 250)Temperatura (degC), Point: (28.051, 250)Temperatura (degC), Point: (29.025, 250)Temperatura (degC), Point: (29.61, 250)Temperatura (degC), Point: (29.99, 250)Temperatura (degC), Point: (0, 312.5)Temperatura (degC), Point: (15, 312.5)Temperatura (degC), Point: (28.051, 312.5)Temperatura (degC), Point: (29.025, 312.5)Temperatura (degC), Point: (29.61, 312.5)Temperatura (degC), Point: (29.99, 312.5)Temperatura (degC), Point: (0, 375)Temperatura (degC), Point: (15, 375)Temperatura (degC), Point: (28.051, 375)Temperatura (degC), Point: (29.025, 375)Temperatura (degC), Point: (29.61, 375)Temperatura (degC), Point: (29.99, 375)Temperatura (degC), Point: (0, 437.5)Temperatura (degC), Point: (15, 437.5)Temperatura (degC), Point: (28.051, 437.5)Temperatura (degC), Point: (29.025, 437.5)Temperatura (degC), Point: (29.61, 437.5)Temperatura (degC), Point: (29.99, 437.5)Temperatura (degC), Point: (0, 468.75)Temperatura (degC), Point: (15, 468.75)Temperatura (degC), Point: (28.051, 468.75)Temperatura (degC), Point: (29.025, 468.75)Temperatura (degC), Point: (29.61, 468.75)Temperatura (degC), Point: (29.99, 468.75)Temperatura (degC), Point: (0, 492.19)Temperatura (degC), Point: (15, 492.19)Temperatura (degC), Point: (28.051, 492.19)Temperatura (degC), Point: (29.025, 492.19)Temperatura (degC), Point: (29.61, 492.19)Temperatura (degC), Point: (29.99, 492.19)
20.000                   3.0000                   2.0000                   10000                    1000.0                   0.0000                   20.000                   20.000                   20.000                   20.000                   20.013                   20.187                   20.000                   20.000                   20.000                   20.000                   20.013                   20.187                   20.000                   20.000                   20.000                   20.000                   20.013                   20.187                   20.000                   20.000                   20.000                   20.000                   20.013                   20.187                   20.000                   20.000                   20.000                   20.000                   20.013                   20.187                   20.000                   20.000                   20.000                   20.000                   20.013                   20.187                   20.000                   20.000                   20.000                   20.000                   20.013                   20.187                   20.000                   20.000                   20.000                   20.000                   20.012                   20.184                   20.000                   20.000                   20.000                   20.000                   20.011                   20.173                   20.000                   20.000                   20.000                   20.000                   20.007                   20.138
20.000                   3.0000                   2.0000                   10000                    1000.0                   5.0000                   22.296                   29.621                   69.800                   75.580                   79.331                   81.124                   22.287                   29.639                   69.789                   75.589                   79.371                   81.166                   22.290                   29.656                   69.690                   75.412                   79.126                   80.896                   22.288                   29.646                   69.789                   75.583                   79.360                   81.151                   22.286                   29.642                   69.924                   75.751                   79.549                   81.358                   22.292                   29.663                   69.912                   75.716                   79.496                   81.292                   22.294                   29.668                   69.846                   75.628                   79.390                   81.174                   22.339                   29.771                   69.360                   74.996                   78.613                   80.314                   22.244                   29.171                   65.504                   70.913                   74.325                   75.977                   22.833                   29.195                   58.775                   62.915                   65.539                   66.842
20.000                   3.0000                   2.0000                   10000                    1000.0                   10.000                   35.147                   51.603                   105.53                   111.59                   115.37                   117.12                   35.138                   51.584                   105.42                   111.48                   115.26                   117.01                   35.118                   51.477                   104.86                   110.89                   114.66                   116.40                   35.137                   51.566                   105.32                   111.37                   115.16                   116.90                   35.168                   51.693                   105.82                   111.89                   115.68                   117.42                   35.158                   51.620                   105.49                   111.55                   115.34                   117.08                   35.191                   51.665                   105.51                   111.57                   115.36                   117.10                   35.138                   51.468                   104.67                   110.62                   114.33                   116.04                   34.323                   49.676                   99.492                   104.93                   108.34                   109.92                   34.687                   48.297                   87.650                   91.646                   94.132                   95.336
20.000                   3.0000                   2.0000                   10000                    1000.0                   15.000                   55.889                   77.369                   137.64                   144.05                   148.04                   149.84                   55.893                   77.365                   137.60                   144.01                   148.00                   149.80                   55.856                   77.265                   137.57                   144.00                   147.99                   149.79                   55.891                   77.349                   137.59                   144.00                   147.99                   149.79                   55.948                   77.481                   137.75                   144.15                   148.14                   149.94                   55.904                   77.374                   137.59                   144.00                   147.99                   149.79                   55.967                   77.450                   137.71                   144.12                   148.11                   149.91                   55.482                   76.595                   135.47                   141.71                   145.61                   147.36                   53.282                   72.800                   125.90                   131.43                   134.92                   136.53                   51.806                   68.500                   109.95                   113.97                   116.50                   117.71
20.000                   3.0000                   2.0000                   10000                    1000.0                   20.000                   81.003                   105.14                   169.96                   176.74                   180.96                   182.82                   81.022                   105.15                   169.97                   176.75                   180.97                   182.83                   80.989                   105.09                   170.08                   176.89                   181.11                   182.97                   81.022                   105.15                   169.99                   176.78                   181.00                   182.85                   81.078                   105.25                   170.02                   176.80                   181.02                   182.87                   81.022                   105.15                   169.94                   176.72                   180.94                   182.80                   81.068                   105.20                   170.01                   176.79                   181.01                   182.87                   79.738                   103.30                   166.29                   172.88                   176.97                   178.79                   75.483                   96.927                   152.97                   158.77                   162.40                   164.06                   71.931                   90.025                   133.30                   137.46                   140.06                   141.29
20.000                   3.0000                   2.0000                   10000                    1000.0                   25.000                   106.44                   133.06                   202.30                   209.46                   213.91                   215.82                   106.47                   133.09                   202.36                   209.52                   213.97                   215.88                   106.45                   133.06                   202.58                   209.77                   214.23                   216.14                   106.48                   133.10                   202.40                   209.57                   214.02                   215.93                   106.53                   133.16                   202.33                   209.48                   213.93                   215.84                   106.46                   133.07                   202.31                   209.47                   213.91                   215.83                   106.49                   133.09                   202.33                   209.49                   213.93                   215.85                   104.28                   130.13                   197.12                   204.05                   208.35                   210.22                   97.918                   121.13                   180.09                   186.16                   189.95                   191.64                   92.280                   111.65                   156.72                   161.03                   163.71                   164.96
20.000                   3.0000                   2.0000                   10000                    1000.0                   30.000                   134.50                   162.37                   235.10                   242.67                   247.35                   249.33                   134.54                   162.42                   235.18                   242.75                   247.44                   249.41                   134.53                   162.41                   235.38                   242.96                   247.66                   249.63                   134.55                   162.43                   235.23                   242.80                   247.49                   249.46                   134.59                   162.47                   235.14                   242.70                   247.38                   249.36                   134.52                   162.39                   235.13                   242.70                   247.38                   249.36                   134.49                   162.34                   235.04                   242.59                   247.28                   249.25                   131.05                   158.00                   228.15                   235.44                   239.96                   241.87                   122.15                   146.11                   207.55                   213.92                   217.88                   219.61                   114.49                   134.34                   180.84                   185.30                   188.07                   189.34
20.000                   3.0000                   2.0000                   10000                    1000.0                   35.000                   162.71                   191.82                   268.11                   276.08                   281.01                   283.04                   162.76                   191.88                   268.20                   276.18                   281.11                   283.15                   162.76                   191.90                   268.37                   276.36                   281.30                   283.33                   162.77                   191.90                   268.25                   276.23                   281.16                   283.20                   162.79                   191.91                   268.15                   276.12                   281.06                   283.09                   162.73                   191.85                   268.15                   276.13                   281.06                   283.10                   162.63                   191.71                   267.93                   275.90                   280.82                   282.85                   157.92                   185.96                   259.30                   266.96                   271.71                   273.68                   146.48                   171.17                   235.10                   241.77                   245.91                   247.69                   136.81                   157.13                   205.05                   209.66                   212.51                   213.80
20.000                   3.0000                   2.0000                   10000                    1000.0                   40.000                   192.35                   222.62                   303.04                   311.52                   316.76                   318.86                   192.40                   222.68                   303.13                   311.61                   316.85                   318.95                   192.41                   222.70                   303.26                   311.76                   317.01                   319.11                   192.42                   222.70                   303.17                   311.65                   316.90                   319.00                   192.43                   222.70                   303.08                   311.56                   316.81                   318.91                   192.38                   222.64                   303.07                   311.56                   316.80                   318.90                   192.14                   222.36                   302.66                   311.13                   316.36                   318.45                   185.78                   214.82                   291.75                   299.85                   304.87                   306.90                   171.66                   197.02                   263.57                   270.56                   274.89                   276.71                   160.20                   180.88                   230.07                   234.82                   237.76                   239.07
20.000                   3.0000                   2.0000                   10000                    1000.0                   45.000                   222.00                   253.41                   337.97                   346.96                   352.51                   354.68                   222.05                   253.48                   338.05                   347.05                   352.60                   354.76                   222.06                   253.51                   338.16                   347.17                   352.73                   354.89                   222.07                   253.50                   338.08                   347.08                   352.63                   354.80                   222.07                   253.49                   338.01                   347.01                   352.56                   354.72                   222.02                   253.44                   338.00                   346.99                   352.54                   354.71                   221.65                   253.01                   337.38                   346.36                   351.89                   354.05                   213.64                   243.67                   324.19                   332.74                   338.03                   340.12                   196.84                   222.87                   292.04                   299.35                   303.88                   305.74                   183.59                   204.63                   255.09                   259.99                   263.00                   264.34
20.000                   3.0000                   2.0000                   10000                    1000.0                   50.000                   251.65                   284.21                   372.90                   382.41                   388.26                   390.50                   251.70                   284.28                   372.97                   382.48                   388.34                   390.57                   251.71                   284.31                   373.06                   382.57                   388.44                   390.67                   251.71                   284.30                   373.00                   382.50                   388.36                   390.60                   251.71                   284.28                   372.94                   382.45                   388.31                   390.54                   251.66                   284.23                   372.92                   382.42                   388.28                   390.52                   251.16                   283.66                   372.11                   381.58                   387.43                   389.65                   241.51                   272.52                   356.64                   365.64                   371.19                   373.35                   222.02                   248.72                   320.51                   328.14                   332.86                   334.77                   206.99                   228.37                   280.11                   285.15                   288.25                   289.61
20.000                   3.0000                   2.0000                   10000                    1000.0                   55.000                   281.25                   314.99                   407.86                   417.89                   424.06                   426.35                   281.29                   315.05                   407.93                   417.95                   424.12                   426.41                   281.32                   315.09                   407.99                   418.02                   424.20                   426.50                   281.31                   315.07                   407.95                   417.97                   424.14                   426.43                   281.30                   315.04                   407.90                   417.93                   424.10                   426.40                   281.25                   315.00                   407.87                   417.89                   424.07                   426.36                   280.61                   314.28                   406.86                   416.85                   422.99                   425.28                   269.31                   301.35                   389.12                   398.56                   404.39                   406.60                   247.20                   274.61                   349.11                   357.07                   361.99                   363.94                   230.40                   252.16                   305.19                   310.37                   313.57                   314.94
20.000                   3.0000                   2.0000                   10000                    1000.0                   60.000                   310.70                   345.70                   442.93                   453.49                   459.98                   462.32                   310.74                   345.75                   442.98                   453.54                   460.02                   462.37                   310.77                   345.79                   443.03                   453.60                   460.09                   462.44                   310.76                   345.77                   442.99                   453.55                   460.04                   462.38                   310.75                   345.75                   442.96                   453.52                   460.02                   462.36                   310.70                   345.70                   442.92                   453.48                   459.97                   462.32                   309.90                   344.81                   441.69                   452.21                   458.67                   461.01                   296.95                   330.11                   421.68                   431.60                   437.70                   439.96                   272.35                   300.63                   378.10                   386.41                   391.55                   393.54                   253.87                   276.09                   330.46                   335.78                   339.06                   340.45
20.000                   3.0000                   2.0000                   10000                    1000.0                   65.000                   340.15                   376.41                   477.99                   489.09                   495.89                   498.29                   340.19                   376.46                   478.03                   489.12                   495.93                   498.33                   340.22                   376.49                   478.07                   489.17                   495.99                   498.39                   340.21                   376.47                   478.03                   489.13                   495.94                   498.34                   340.20                   376.45                   478.02                   489.12                   495.93                   498.33                   340.14                   376.41                   477.97                   489.07                   495.88                   498.28                   339.19                   375.34                   476.52                   487.57                   494.35                   496.74                   324.58                   358.87                   454.25                   464.63                   471.01                   473.32                   297.49                   326.64                   407.08                   415.76                   421.11                   423.14                   277.34                   300.02                   355.72                   361.19                   364.56                   365.96
20.000                   3.0000                   2.0000                   10000                    1000.0                   70.000                   369.61                   407.12                   513.05                   524.69                   531.81                   534.27                   369.64                   407.16                   513.07                   524.71                   531.83                   534.28                   369.66                   407.20                   513.11                   524.75                   531.88                   534.34                   369.65                   407.18                   513.08                   524.71                   531.83                   534.29                   369.64                   407.16                   513.07                   524.71                   531.84                   534.30                   369.59                   407.11                   513.02                   524.65                   531.79                   534.24                   368.48                   405.88                   511.35                   522.93                   530.02                   532.46                   352.21                   387.62                   486.82                   497.66                   504.32                   506.68                   322.64                   352.65                   436.07                   445.10                   450.67                   452.74                   300.81                   323.95                   380.99                   386.60                   390.06                   391.48
20.000                   3.0000                   2.0000                   10000                    1000.0                   75.000                   398.35                   437.17                   547.68                   559.95                   567.46                   569.97                   398.38                   437.21                   547.70                   559.96                   567.47                   569.98                   398.41                   437.24                   547.73                   560.00                   567.51                   570.03                   398.40                   437.23                   547.70                   559.96                   567.47                   569.98                   398.38                   437.21                   547.71                   559.98                   567.49                   570.00                   398.33                   437.16                   547.65                   559.91                   567.43                   569.94                   397.10                   435.80                   545.84                   558.05                   565.52                   568.02                   379.31                   415.96                   519.30                   530.69                   537.68                   540.08                   347.40                   378.34                   464.90                   474.31                   480.11                   482.22                   323.94                   347.54                   405.90                   411.65                   415.18                   416.61