% Model:              batchmodel_COIL_N_20_COIL_kr_3_COIL_kh_2_FUNZ_freq_2000_FUNZ_I_eff_4000.mph
% Version:            COMSOL 6.0.0.318
% Date:               Feb 9 2022, 04:15
% Table:              Tabella 1 - GRIGLIA_T
% COIL_N                 COIL_kr                  COIL_kh                  FUNZ_freq                FUNZ_I_eff               Time (s)                 Temperatura (degC), Point: (0, 0)Temperatura (degC), Point: (15, 0)Temperatura (degC), Point: (25.641, 0)Temperatura (degC), Point: (27.821, 0)Temperatura (degC), Point: (29.128, 0)Temperatura (degC), Point: (29.99, 0)Temperatura (degC), Point: (0, 62.5)Temperatura (degC), Point: (15, 62.5)Temperatura (degC), Point: (25.641, 62.5)Temperatura (degC), Point: (27.821, 62.5)Temperatura (degC), Point: (29.128, 62.5)Temperatura (degC), Point: (29.99, 62.5)Temperatura (degC), Point: (0, 125)Temperatura (degC), Point: (15, 125)Temperatura (degC), Point: (25.641, 125)Temperatura (degC), Point: (27.821, 125)Temperatura (degC), Point: (29.128, 125)Temperatura (degC), Point: (29.99, 125)Temperatura (degC), Point: (0, 187.5)Temperatura (degC), Point: (15, 187.5)Temperatura (degC), Point: (25.641, 187.5)Temperatura (degC), Point: (27.821, 187.5)Temperatura (degC), Point: (29.128, 187.5)Temperatura (degC), Point: (29.99, 187.5)Temperatura (degC), Point: (0, 250)Temperatura (degC), Point: (15, 250)Temperatura (degC), Point: (25.641, 250)Temperatura (degC), Point: (27.821, 250)Temperatura (degC), Point: (29.128, 250)Temperatura (degC), Point: (29.99, 250)Temperatura (degC), Point: (0, 312.5)Temperatura (degC), Point: (15, 312.5)Temperatura (degC), Point: (25.641, 312.5)Temperatura (degC), Point: (27.821, 312.5)Temperatura (degC), Point: (29.128, 312.5)Temperatura (degC), Point: (29.99, 312.5)Temperatura (degC), Point: (0, 375)Temperatura (degC), Point: (15, 375)Temperatura (degC), Point: (25.641, 375)Temperatura (degC), Point: (27.821, 375)Temperatura (degC), Point: (29.128, 375)Temperatura (degC), Point: (29.99, 375)Temperatura (degC), Point: (0, 437.5)Temperatura (degC), Point: (15, 437.5)Temperatura (degC), Point: (25.641, 437.5)Temperatura (degC), Point: (27.821, 437.5)Temperatura (degC), Point: (29.128, 437.5)Temperatura (degC), Point: (29.99, 437.5)Temperatura (degC), Point: (0, 468.75)Temperatura (degC), Point: (15, 468.75)Temperatura (degC), Point: (25.641, 468.75)Temperatura (degC), Point: (27.821, 468.75)Temperatura (degC), Point: (29.128, 468.75)Temperatura (degC), Point: (29.99, 468.75)Temperatura (degC), Point: (0, 492.19)Temperatura (degC), Point: (15, 492.19)Temperatura (degC), Point: (25.641, 492.19)Temperatura (degC), Point: (27.821, 492.19)Temperatura (degC), Point: (29.128, 492.19)Temperatura (degC), Point: (29.99, 492.19)
20.000                   3.0000                   2.0000                   2000.0                   4000.0                   0.0000                   20.000                   20.000                   20.000                   20.000                   20.062                   20.221                   20.000                   20.000                   20.000                   20.000                   20.062                   20.221                   20.000                   20.000                   20.000                   20.000                   20.062                   20.221                   20.000                   20.000                   20.000                   20.000                   20.062                   20.221                   20.000                   20.000                   20.000                   20.000                   20.062                   20.221                   20.000                   20.000                   20.000                   20.000                   20.062                   20.221                   20.000                   20.000                   20.000                   20.000                   20.062                   20.221                   20.000                   20.000                   20.000                   20.000                   20.060                   20.219                   20.000                   20.000                   20.000                   20.000                   20.054                   20.205                   20.000                   20.000                   20.000                   20.000                   20.035                   20.162
20.000                   3.0000                   2.0000                   2000.0                   4000.0                   5.0000                   28.595                   59.611                   189.52                   240.84                   272.94                   282.98                   28.622                   59.717                   189.56                   240.29                   272.79                   283.06                   28.630                   59.792                   189.99                   240.73                   273.46                   283.73                   28.609                   59.694                   189.56                   240.48                   272.97                   283.19                   28.590                   59.568                   189.00                   239.96                   272.40                   282.59                   28.605                   59.661                   189.64                   240.43                   273.04                   283.25                   28.931                   61.087                   193.96                   244.96                   276.82                   286.69                   28.794                   60.325                   188.89                   238.09                   268.75                   278.44                   27.707                   55.339                   168.72                   211.68                   238.81                   247.75                   29.420                   51.887                   133.37                   162.89                   182.29                   189.17
20.000                   3.0000                   2.0000                   2000.0                   4000.0                   10.000                   83.056                   155.79                   356.03                   426.91                   468.60                   480.22                   83.154                   156.09                   357.88                   429.67                   470.73                   482.10                   83.184                   156.19                   358.03                   430.21                   471.47                   482.87                   83.123                   156.00                   356.93                   428.28                   469.13                   480.52                   83.087                   155.90                   356.54                   427.66                   469.32                   480.92                   83.128                   155.96                   356.94                   428.50                   469.25                   480.62                   84.418                   158.37                   361.73                   433.59                   475.66                   487.43                   82.249                   153.13                   345.48                   412.50                   451.71                   462.83                   75.015                   137.32                   302.69                   358.13                   390.99                   400.93                   73.870                   123.67                   242.42                   279.31                   302.24                   309.42
20.000                   3.0000                   2.0000                   2000.0                   4000.0                   15.000                   166.56                   263.93                   514.72                   602.82                   651.17                   663.67                   166.74                   264.32                   516.37                   605.15                   651.27                   663.25                   166.84                   264.49                   516.41                   605.83                   651.67                   663.56                   166.61                   263.86                   512.99                   600.25                   646.89                   659.09                   166.65                   264.07                   514.93                   603.51                   651.65                   663.93                   166.69                   264.00                   513.85                   601.68                   648.94                   661.37                   168.60                   266.87                   519.51                   606.95                   655.19                   667.90                   162.62                   255.96                   491.86                   573.28                   618.52                   630.46                   146.71                   227.94                   425.14                   490.01                   527.60                   538.21                   138.37                   202.77                   340.44                   381.28                   406.08                   413.61
20.000                   3.0000                   2.0000                   2000.0                   4000.0                   20.000                   259.15                   369.33                   649.87                   754.24                   810.70                   824.03                   259.32                   369.52                   650.00                   753.71                   808.38                   821.33                   259.54                   369.89                   651.18                   756.22                   810.91                   823.82                   259.00                   368.63                   646.03                   747.69                   802.62                   815.67                   259.08                   368.91                   646.86                   749.37                   804.71                   817.77                   259.26                   369.20                   648.18                   751.10                   806.91                   820.21                   261.23                   371.65                   651.41                   754.23                   809.25                   822.11                   251.31                   356.25                   618.16                   710.02                   760.58                   773.30                   226.93                   318.21                   540.28                   614.85                   655.85                   666.71                   210.18                   281.66                   433.16                   478.47                   504.81                   512.50
20.000                   3.0000                   2.0000                   2000.0                   4000.0                   25.000                   349.97                   467.00                   782.79                   918.65                   978.91                   990.74                   350.06                   466.93                   781.47                   916.72                   976.95                   988.83                   350.38                   467.43                   782.96                   918.45                   978.67                   990.51                   349.53                   465.77                   777.02                   911.23                   971.59                   983.59                   349.65                   466.10                   778.58                   913.37                   973.73                   985.69                   350.04                   466.70                   780.07                   915.02                   975.31                   987.23                   351.75                   468.62                   783.73                   919.35                   979.47                   991.27                   338.23                   449.11                   732.30                   849.81                   908.60                   921.21                   306.82                   403.96                   640.03                   720.34                   763.04                   773.73                   281.11                   357.06                   519.78                   569.27                   596.83                   604.32
20.000                   3.0000                   2.0000                   2000.0                   4000.0                   30.000                   434.72                   557.17                   951.05                   1075.6                   1109.5                   1112.1                   434.69                   556.48                   934.73                   1059.2                   1095.4                   1098.7                   435.07                   556.89                   928.03                   1050.8                   1087.9                   1091.5                   433.95                   554.69                   912.60                   1035.1                   1075.3                   1079.9                   434.13                   555.46                   933.31                   1059.5                   1096.4                   1099.7                   434.64                   555.45                   898.70                   1013.7                   1055.1                   1060.8                   436.12                   557.89                   926.13                   1047.2                   1084.3                   1088.0                   419.52                   533.79                   844.91                   966.08                   1015.8                   1024.6                   382.46                   481.80                   715.87                   799.55                   844.78                   855.00                   349.92                   428.38                   591.31                   638.10                   663.69                   670.31
20.000                   3.0000                   2.0000                   2000.0                   4000.0                   35.000                   510.85                   639.00                   1080.9                   1149.8                   1162.5                   1160.5                   510.47                   636.23                   1055.1                   1128.7                   1143.1                   1141.5                   510.57                   633.94                   1019.0                   1095.9                   1112.5                   1111.6                   509.02                   630.61                   1004.8                   1087.3                   1106.5                   1106.3                   509.67                   634.96                   1059.1                   1133.9                   1148.5                   1146.9                   509.40                   627.84                   940.20                   1015.8                   1041.4                   1044.0                   511.27                   633.38                   997.57                   1076.3                   1095.1                   1095.0                   491.43                   605.08                   922.84                   1018.7                   1052.8                   1057.2                   449.58                   546.97                   774.68                   859.97                   901.52                   910.14                   412.97                   489.64                   642.00                   684.68                   707.85                   713.62
20.000                   3.0000                   2.0000                   2000.0                   4000.0                   40.000                   579.23                   711.32                   1129.2                   1166.8                   1171.9                   1168.4                   578.34                   706.00                   1107.0                   1147.7                   1153.9                   1150.7                   577.42                   698.20                   1060.4                   1107.7                   1116.4                   1114.1                   575.24                   693.83                   1051.4                   1103.1                   1113.7                   1111.8                   577.04                   703.94                   1109.9                   1151.9                   1158.4                   1155.3                   574.53                   685.08                   965.28                   1020.1                   1037.8                   1038.8                   577.10                   693.33                   1021.6                   1075.7                   1088.2                   1087.1                   555.05                   666.57                   1017.7                   1089.0                   1106.1                   1105.7                   507.93                   600.85                   826.29                   907.13                   944.29                   951.38                   468.23                   541.29                   681.93                   720.99                   742.44                   747.64
20.000                   3.0000                   2.0000                   2000.0                   4000.0                   45.000                   638.32                   778.17                   1148.7                   1171.5                   1172.8                   1168.6                   637.01                   769.57                   1130.6                   1155.4                   1157.4                   1153.5                   634.72                   753.45                   1084.6                   1115.3                   1119.6                   1116.5                   631.86                   747.45                   1078.4                   1113.1                   1118.9                   1116.2                   635.02                   765.19                   1130.5                   1156.9                   1159.5                   1155.6                   629.74                   731.66                   992.90                   1035.3                   1047.5                   1047.3                   632.64                   741.60                   1040.6                   1080.3                   1088.7                   1086.9                   611.28                   723.10                   1087.9                   1130.2                   1137.3                   1134.6                   559.23                   646.33                   868.17                   941.03                   973.51                   979.22                   517.17                   585.55                   714.39                   750.62                   771.08                   775.85
20.000                   3.0000                   2.0000                   2000.0                   4000.0                   50.000                   683.45                   841.92                   1152.1                   1167.6                   1167.1                   1162.7                   682.02                   831.89                   1138.0                   1154.9                   1154.9                   1150.7                   678.73                   808.35                   1098.8                   1120.2                   1122.0                   1118.4                   675.43                   798.86                   1092.8                   1117.9                   1121.0                   1117.8                   679.43                   823.11                   1134.4                   1153.0                   1153.6                   1149.5                   672.32                   775.83                   1023.9                   1056.8                   1064.8                   1063.3                   674.93                   786.76                   1058.6                   1088.7                   1094.2                   1091.7                   657.58                   779.90                   1115.5                   1142.6                   1145.5                   1141.9                   601.90                   683.37                   899.28                   962.32                   990.10                   994.56                   558.73                   621.73                   740.70                   776.13                   796.05                   800.47
20.000                   3.0000                   2.0000                   2000.0                   4000.0                   55.000                   720.16                   897.95                   1149.8                   1160.6                   1159.0                   1154.4                   718.76                   888.70                   1139.6                   1151.2                   1149.9                   1145.5                   714.71                   862.47                   1109.0                   1123.8                   1123.8                   1119.9                   710.96                   849.25                   1102.4                   1120.4                   1121.5                   1117.8                   715.48                   875.62                   1132.8                   1146.2                   1145.5                   1141.3                   707.24                   822.32                   1055.0                   1079.3                   1083.5                   1080.9                   709.33                   832.66                   1076.0                   1098.0                   1100.9                   1097.8                   697.15                   838.45                   1127.8                   1145.1                   1145.5                   1141.4                   639.45                   716.27                   927.69                   981.21                   1004.3                   1007.5                   595.65                   653.38                   764.54                   799.75                   819.03                   823.04
20.000                   3.0000                   2.0000                   2000.0                   4000.0                   60.000                   750.40                   941.41                   1145.1                   1152.8                   1150.5                   1145.9                   748.85                   934.48                   1138.2                   1146.4                   1144.4                   1139.9                   743.22                   911.18                   1116.4                   1126.8                   1125.6                   1121.4                   738.06                   895.51                   1109.7                   1122.7                   1122.4                   1118.4                   743.65                   919.10                   1130.6                   1140.5                   1139.0                   1134.6                   733.58                   871.34                   1079.8                   1096.7                   1098.2                   1094.8                   735.34                   878.74                   1091.3                   1107.1                   1107.9                   1104.3                   726.93                   893.69                   1133.2                   1144.9                   1143.7                   1139.4                   671.22                   746.18                   960.00                   1006.9                   1025.1                   1026.8                   627.03                   679.92                   786.82                   821.39                   839.61                   843.20
20.000                   3.0000                   2.0000                   2000.0                   4000.0                   65.000                   794.52                   977.70                   1142.5                   1147.9                   1145.1                   1140.5                   792.97                   973.06                   1138.2                   1143.9                   1141.2                   1136.6                   784.66                   954.37                   1123.1                   1130.2                   1128.1                   1123.7                   774.28                   937.80                   1116.8                   1125.9                   1124.5                   1120.4                   783.00                   957.25                   1130.9                   1137.9                   1135.8                   1131.3                   767.74                   918.69                   1098.1                   1109.6                   1109.2                   1105.4                   769.23                   923.14                   1104.2                   1115.1                   1114.5                   1110.5                   761.99                   941.88                   1137.1                   1144.9                   1142.8                   1138.3                   697.77                   779.47                   996.84                   1037.3                   1050.4                   1050.4                   653.96                   702.29                   808.15                   841.33                   858.43                   861.61
20.000                   3.0000                   2.0000                   2000.0                   4000.0                   70.000                   846.54                   1010.0                   1142.0                   1145.5                   1142.2                   1137.5                   845.40                   1007.4                   1139.5                   1143.1                   1139.9                   1135.3                   836.09                   993.61                   1129.6                   1134.1                   1131.2                   1126.7                   820.54                   977.21                   1123.9                   1129.9                   1127.6                   1123.2                   831.56                   992.38                   1133.0                   1137.7                   1134.9                   1130.3                   813.16                   963.47                   1112.8                   1120.0                   1118.3                   1114.1                   813.94                   965.44                   1115.5                   1122.6                   1120.8                   1116.5                   808.15                   984.89                   1140.9                   1145.8                   1142.9                   1138.2                   720.99                   815.97                   1032.5                   1065.8                   1074.3                   1072.8                   677.59                   721.89                   828.65                   860.11                   876.10                   878.86
20.000                   3.0000                   2.0000                   2000.0                   4000.0                   75.000                   902.93                   1039.3                   1143.6                   1145.4                   1141.7                   1136.9                   902.63                   1038.2                   1142.3                   1144.2                   1140.5                   1135.8                   894.74                   1029.1                   1136.2                   1138.5                   1135.0                   1130.4                   875.75                   1013.8                   1131.0                   1134.5                   1131.4                   1126.8                   887.20                   1025.0                   1136.7                   1139.4                   1136.0                   1131.4                   869.50                   1005.0                   1124.7                   1128.8                   1125.9                   1121.5                   869.09                   1005.2                   1125.6                   1129.7                   1126.9                   1122.4                   865.71                   1023.0                   1145.0                   1147.6                   1144.1                   1139.4                   742.47                   855.43                   1064.4                   1089.8                   1094.6                   1092.0                   698.03                   739.34                   848.32                   877.90                   892.75                   895.11