% Model:              batchmodel_COIL_N_20_COIL_kr_3_COIL_kh_1_FUNZ_freq_2000_FUNZ_I_eff_2500.mph
% Version:            COMSOL 6.0.0.318
% Date:               Feb 9 2022, 03:01
% Table:              Tabella 1 - GRIGLIA_T
% COIL_N                 COIL_kr                  COIL_kh                  FUNZ_freq                FUNZ_I_eff               Time (s)                 Temperatura (degC), Point: (0, 0)Temperatura (degC), Point: (15, 0)Temperatura (degC), Point: (25.641, 0)Temperatura (degC), Point: (27.821, 0)Temperatura (degC), Point: (29.128, 0)Temperatura (degC), Point: (29.99, 0)Temperatura (degC), Point: (0, 62.5)Temperatura (degC), Point: (15, 62.5)Temperatura (degC), Point: (25.641, 62.5)Temperatura (degC), Point: (27.821, 62.5)Temperatura (degC), Point: (29.128, 62.5)Temperatura (degC), Point: (29.99, 62.5)Temperatura (degC), Point: (0, 125)Temperatura (degC), Point: (15, 125)Temperatura (degC), Point: (25.641, 125)Temperatura (degC), Point: (27.821, 125)Temperatura (degC), Point: (29.128, 125)Temperatura (degC), Point: (29.99, 125)Temperatura (degC), Point: (0, 187.5)Temperatura (degC), Point: (15, 187.5)Temperatura (degC), Point: (25.641, 187.5)Temperatura (degC), Point: (27.821, 187.5)Temperatura (degC), Point: (29.128, 187.5)Temperatura (degC), Point: (29.99, 187.5)Temperatura (degC), Point: (0, 250)Temperatura (degC), Point: (15, 250)Temperatura (degC), Point: (25.641, 250)Temperatura (degC), Point: (27.821, 250)Temperatura (degC), Point: (29.128, 250)Temperatura (degC), Point: (29.99, 250)Temperatura (degC), Point: (0, 312.5)Temperatura (degC), Point: (15, 312.5)Temperatura (degC), Point: (25.641, 312.5)Temperatura (degC), Point: (27.821, 312.5)Temperatura (degC), Point: (29.128, 312.5)Temperatura (degC), Point: (29.99, 312.5)Temperatura (degC), Point: (0, 375)Temperatura (degC), Point: (15, 375)Temperatura (degC), Point: (25.641, 375)Temperatura (degC), Point: (27.821, 375)Temperatura (degC), Point: (29.128, 375)Temperatura (degC), Point: (29.99, 375)Temperatura (degC), Point: (0, 437.5)Temperatura (degC), Point: (15, 437.5)Temperatura (degC), Point: (25.641, 437.5)Temperatura (degC), Point: (27.821, 437.5)Temperatura (degC), Point: (29.128, 437.5)Temperatura (degC), Point: (29.99, 437.5)Temperatura (degC), Point: (0, 468.75)Temperatura (degC), Point: (15, 468.75)Temperatura (degC), Point: (25.641, 468.75)Temperatura (degC), Point: (27.821, 468.75)Temperatura (degC), Point: (29.128, 468.75)Temperatura (degC), Point: (29.99, 468.75)Temperatura (degC), Point: (0, 492.19)Temperatura (degC), Point: (15, 492.19)Temperatura (degC), Point: (25.641, 492.19)Temperatura (degC), Point: (27.821, 492.19)Temperatura (degC), Point: (29.128, 492.19)Temperatura (degC), Point: (29.99, 492.19)
20.000                   3.0000                   1.0000                   2000.0                   2500.0                   0.0000                   20.000                   20.000                   20.000                   20.000                   20.023                   20.130                   20.000                   20.000                   20.000                   20.000                   20.023                   20.130                   20.000                   20.000                   20.000                   20.000                   20.023                   20.130                   20.000                   20.000                   20.000                   20.000                   20.023                   20.130                   20.000                   20.000                   20.000                   20.000                   20.023                   20.130                   20.000                   20.000                   20.000                   20.000                   20.023                   20.130                   20.000                   20.000                   20.000                   20.000                   20.023                   20.130                   20.000                   20.000                   20.000                   20.000                   20.023                   20.128                   20.000                   20.000                   20.000                   20.000                   20.020                   20.119                   20.000                   20.000                   20.000                   20.000                   20.010                   20.090
20.000                   3.0000                   1.0000                   2000.0                   2500.0                   5.0000                   24.210                   38.759                   95.803                   115.92                   129.25                   134.33                   24.191                   38.659                   95.655                   116.11                   129.76                   134.85                   24.185                   38.607                   94.966                   114.96                   128.29                   133.30                   24.186                   38.608                   94.976                   115.04                   128.45                   133.49                   24.193                   38.672                   95.638                   116.01                   129.68                   134.76                   24.238                   38.866                   95.899                   116.03                   129.48                   134.41                   24.241                   38.829                   95.634                   115.68                   128.91                   133.78                   24.096                   38.226                   93.339                   112.70                   125.10                   129.68                   23.588                   36.009                   84.807                   102.04                   113.27                   117.62                   24.383                   33.696                   68.337                   80.314                   88.047                   91.371
20.000                   3.0000                   1.0000                   2000.0                   2500.0                   10.000                   47.862                   78.536                   154.44                   179.26                   195.61                   201.63                   47.920                   78.797                   155.19                   180.17                   196.14                   202.09                   47.870                   78.637                   154.54                   179.26                   195.51                   201.44                   47.883                   78.660                   154.69                   179.49                   195.76                   201.70                   47.921                   78.786                   155.13                   180.16                   196.01                   201.94                   47.949                   78.626                   154.23                   179.10                   195.21                   201.25                   47.806                   78.213                   153.08                   177.68                   193.81                   199.71                   46.224                   74.501                   143.54                   166.23                   180.88                   186.54                   43.094                   68.391                   130.35                   150.36                   163.44                   168.51                   38.788                   58.638                   103.05                   116.43                   124.50                   127.96
20.000                   3.0000                   1.0000                   2000.0                   2500.0                   15.000                   88.309                   129.20                   223.96                   253.68                   272.67                   279.23                   88.370                   129.17                   223.02                   252.23                   270.65                   277.08                   88.215                   128.77                   221.47                   250.03                   268.09                   274.42                   88.264                   128.87                   221.71                   250.27                   268.30                   274.61                   88.286                   128.95                   222.34                   251.35                   269.33                   275.67                   88.396                   129.22                   223.38                   252.72                   271.29                   277.97                   87.710                   127.97                   221.14                   250.48                   268.93                   275.35                   83.202                   120.48                   206.61                   233.05                   249.53                   255.69                   75.905                   109.15                   185.09                   208.03                   222.46                   227.82                   70.594                   95.672                   150.30                   165.62                   174.50                   178.26
20.000                   3.0000                   1.0000                   2000.0                   2500.0                   20.000                   135.80                   183.83                   291.77                   325.03                   345.60                   352.25                   135.74                   183.52                   290.51                   323.31                   343.84                   350.38                   135.42                   182.85                   288.31                   320.34                   340.05                   346.49                   135.50                   183.01                   288.78                   320.93                   340.69                   347.14                   135.50                   183.03                   289.05                   321.34                   341.23                   347.72                   135.90                   183.90                   291.47                   324.25                   344.45                   351.17                   134.57                   181.87                   288.15                   320.90                   341.05                   347.66                   126.84                   170.82                   269.69                   299.15                   317.08                   323.36                   114.84                   153.65                   239.41                   264.73                   280.44                   285.92                   107.10                   136.11                   197.76                   214.48                   224.14                   228.08
20.000                   3.0000                   1.0000                   2000.0                   2500.0                   25.000                   186.63                   240.31                   359.89                   396.89                   419.26                   426.06                   186.38                   239.74                   358.54                   395.14                   417.83                   424.55                   185.88                   238.81                   356.03                   391.93                   413.60                   420.27                   185.97                   238.99                   356.52                   392.51                   414.15                   420.83                   185.99                   239.08                   356.91                   392.89                   414.86                   421.60                   186.75                   240.45                   359.91                   396.32                   418.31                   425.12                   184.70                   237.52                   354.83                   390.81                   412.64                   419.43                   173.67                   222.96                   332.29                   364.62                   383.90                   390.25                   156.68                   199.68                   293.04                   320.47                   337.30                   342.90                   145.94                   177.87                   244.02                   261.60                   271.63                   275.57
20.000                   3.0000                   1.0000                   2000.0                   2500.0                   30.000                   238.64                   296.57                   425.67                   465.78                   489.44                   496.31                   238.14                   295.63                   423.68                   463.31                   487.44                   494.17                   237.53                   294.62                   421.05                   459.89                   482.79                   489.57                   237.61                   294.78                   421.35                   460.04                   482.71                   489.47                   237.68                   294.97                   422.27                   461.37                   484.86                   491.68                   238.81                   296.86                   426.22                   465.80                   489.23                   496.05                   235.89                   292.68                   418.24                   456.58                   479.36                   486.14                   221.64                   274.60                   390.92                   425.07                   445.07                   451.28                   199.81                   245.62                   344.52                   373.59                   391.11                   396.71                   185.92                   219.75                   288.27                   305.89                   315.76                   319.54
20.000                   3.0000                   1.0000                   2000.0                   2500.0                   35.000                   290.45                   352.10                   489.93                   532.84                   557.62                   564.56                   289.71                   350.83                   487.32                   529.80                   555.04                   561.75                   289.01                   349.71                   484.26                   525.64                   549.42                   556.22                   289.08                   349.90                   484.71                   525.88                   549.36                   556.14                   289.20                   350.15                   485.99                   528.03                   552.76                   559.60                   290.69                   352.54                   490.80                   533.21                   557.84                   564.66                   286.89                   347.16                   480.35                   521.03                   544.60                   551.37                   269.49                   325.60                   448.43                   484.46                   505.26                   511.36                   242.86                   290.90                   394.34                   424.67                   442.64                   448.20                   225.89                   261.11                   331.31                   348.88                   358.56                   362.18
20.000                   3.0000                   1.0000                   2000.0                   2500.0                   40.000                   341.97                   406.83                   552.68                   598.17                   623.91                   630.94                   340.99                   405.27                   549.54                   594.75                   620.82                   627.49                   340.22                   404.04                   545.78                   589.38                   613.75                   620.51                   340.29                   404.29                   546.69                   590.26                   614.41                   621.16                   340.45                   404.56                   548.14                   593.01                   618.71                   625.54                   342.28                   407.41                   553.64                   598.63                   624.25                   631.07                   337.63                   400.92                   541.31                   584.43                   608.72                   615.50                   317.15                   375.96                   505.01                   543.11                   564.86                   570.92                   285.76                   335.50                   442.61                   473.88                   492.09                   497.59                   265.73                   301.88                   373.14                   390.64                   400.14                   403.62
20.000                   3.0000                   1.0000                   2000.0                   2500.0                   45.000                   391.37                   459.23                   614.90                   665.38                   693.34                   700.49                   390.32                   457.73                   612.52                   662.88                   690.96                   698.03                   389.60                   456.69                   610.23                   659.99                   687.52                   694.62                   389.64                   456.88                   610.83                   660.59                   688.03                   695.12                   389.83                   457.14                   611.62                   661.86                   689.83                   696.96                   391.69                   459.75                   615.58                   665.82                   693.68                   700.76                   386.68                   453.30                   605.85                   655.26                   682.76                   689.90                   363.73                   425.62                   565.70                   609.54                   634.43                   641.08                   327.72                   379.66                   494.22                   529.26                   549.71                   555.59                   302.22                   339.65                   412.79                   432.19                   443.64                   447.42
20.000                   3.0000                   1.0000                   2000.0                   2500.0                   50.000                   438.74                   508.84                   670.16                   724.44                   754.78                   762.18                   437.68                   507.46                   668.31                   722.46                   752.79                   760.21                   437.00                   506.59                   666.89                   720.84                   751.11                   758.53                   437.02                   506.71                   667.24                   721.23                   751.48                   758.90                   437.23                   506.96                   667.70                   721.81                   752.12                   759.55                   439.04                   509.29                   670.70                   724.93                   755.25                   762.64                   433.82                   502.98                   662.40                   715.76                   745.73                   753.16                   408.87                   473.49                   621.28                   668.86                   695.53                   702.41                   368.87                   423.01                   544.46                   582.39                   604.38                   610.45                   338.41                   377.08                   452.54                   473.32                   485.89                   489.80
20.000                   3.0000                   1.0000                   2000.0                   2500.0                   55.000                   484.19                   555.80                   719.79                   777.35                   810.18                   817.87                   483.15                   554.56                   718.24                   775.56                   808.29                   815.98                   482.54                   553.84                   717.17                   774.22                   806.82                   814.52                   482.52                   553.89                   717.35                   774.44                   807.06                   814.75                   482.76                   554.14                   717.76                   774.97                   807.65                   815.34                   484.45                   556.16                   720.29                   777.96                   810.85                   818.54                   479.14                   550.08                   712.36                   768.29                   800.18                   807.79                   452.60                   519.54                   672.01                   721.78                   749.27                   756.10                   409.18                   465.49                   593.07                   633.11                   656.04                   662.14                   374.26                   414.13                   492.22                   513.93                   526.91                   530.81
20.000                   3.0000                   1.0000                   2000.0                   2500.0                   60.000                   526.56                   598.31                   770.37                   836.76                   871.36                   878.81                   525.59                   597.21                   768.74                   834.94                   869.49                   876.94                   525.03                   596.59                   767.75                   833.75                   868.26                   875.72                   524.99                   596.59                   767.82                   833.84                   868.35                   875.82                   525.24                   596.86                   768.28                   834.39                   868.93                   876.38                   526.78                   598.61                   770.93                   837.45                   872.07                   879.50                   521.48                   592.76                   762.05                   827.02                   861.15                   868.60                   493.60                   561.37                   714.95                   768.17                   798.18                   805.20                   447.37                   505.28                   635.84                   677.30                   700.70                   706.68                   409.13                   449.94                   530.18                   552.46                   565.64                   569.46
20.000                   3.0000                   1.0000                   2000.0                   2500.0                   65.000                   566.68                   638.27                   824.32                   895.90                   930.42                   937.17                   565.79                   637.29                   822.70                   894.19                   928.71                   935.48                   565.28                   636.75                   821.74                   893.12                   927.66                   934.45                   565.22                   636.71                   821.73                   893.10                   927.64                   934.42                   565.48                   636.98                   822.22                   893.66                   928.19                   934.96                   566.87                   638.52                   824.92                   896.61                   931.10                   937.84                   561.66                   632.91                   815.58                   886.41                   920.92                   927.77                   532.71                   600.56                   758.69                   817.28                   849.02                   855.96                   484.04                   542.75                   673.72                   715.45                   738.99                   744.79                   443.01                   484.59                   566.08                   588.57                   601.77                   605.47
20.000                   3.0000                   1.0000                   2000.0                   2500.0                   70.000                   604.63                   675.79                   879.61                   952.78                   985.53                   991.20                   603.82                   674.92                   878.05                   951.26                   984.07                   989.77                   603.36                   674.43                   877.12                   950.32                   983.18                   988.90                   603.29                   674.38                   877.05                   950.23                   983.10                   988.82                   603.55                   674.64                   877.54                   950.73                   983.56                   989.27                   604.78                   676.01                   880.31                   953.56                   986.25                   991.89                   599.75                   670.71                   871.26                   944.70                   977.88                   983.72                   570.01                   637.34                   803.25                   867.59                   900.15                   906.77                   519.27                   578.03                   707.51                   749.02                   772.58                   778.20                   475.95                   518.06                   599.91                   622.31                   635.37                   638.92
20.000                   3.0000                   1.0000                   2000.0                   2500.0                   75.000                   638.01                   708.35                   929.65                   996.58                   1024.4                   1028.3                   637.28                   707.55                   928.15                   995.17                   1023.2                   1027.1                   636.87                   707.12                   927.36                   994.44                   1022.5                   1026.5                   636.80                   707.06                   927.38                   994.50                   1022.6                   1026.6                   637.05                   707.29                   927.56                   994.57                   1022.6                   1026.6                   638.15                   708.62                   930.82                   997.92                   1025.6                   1029.5                   633.48                   703.90                   924.83                   993.33                   1022.0                   1026.1                   603.47                   669.77                   849.63                   914.57                   945.35                   951.04                   551.56                   608.89                   735.35                   778.23                   802.57                   808.08                   506.95                   548.86                   629.12                   651.03                   663.71                   667.02