% Model:              batchmodel_COIL_N_20_COIL_kr_1.5_COIL_kh_2_FUNZ_freq_2000_FUNZ_I_eff_4000.mph
% Version:            COMSOL 6.0.0.318
% Date:               Feb 9 2022, 01:28
% Table:              Tabella 1 - GRIGLIA_T
% COIL_N                 COIL_kr                  COIL_kh                  FUNZ_freq                FUNZ_I_eff               Time (s)                 Temperatura (degC), Point: (0, 0)Temperatura (degC), Point: (15, 0)Temperatura (degC), Point: (25.641, 0)Temperatura (degC), Point: (27.821, 0)Temperatura (degC), Point: (29.128, 0)Temperatura (degC), Point: (29.99, 0)Temperatura (degC), Point: (0, 62.5)Temperatura (degC), Point: (15, 62.5)Temperatura (degC), Point: (25.641, 62.5)Temperatura (degC), Point: (27.821, 62.5)Temperatura (degC), Point: (29.128, 62.5)Temperatura (degC), Point: (29.99, 62.5)Temperatura (degC), Point: (0, 125)Temperatura (degC), Point: (15, 125)Temperatura (degC), Point: (25.641, 125)Temperatura (degC), Point: (27.821, 125)Temperatura (degC), Point: (29.128, 125)Temperatura (degC), Point: (29.99, 125)Temperatura (degC), Point: (0, 187.5)Temperatura (degC), Point: (15, 187.5)Temperatura (degC), Point: (25.641, 187.5)Temperatura (degC), Point: (27.821, 187.5)Temperatura (degC), Point: (29.128, 187.5)Temperatura (degC), Point: (29.99, 187.5)Temperatura (degC), Point: (0, 250)Temperatura (degC), Point: (15, 250)Temperatura (degC), Point: (25.641, 250)Temperatura (degC), Point: (27.821, 250)Temperatura (degC), Point: (29.128, 250)Temperatura (degC), Point: (29.99, 250)Temperatura (degC), Point: (0, 312.5)Temperatura (degC), Point: (15, 312.5)Temperatura (degC), Point: (25.641, 312.5)Temperatura (degC), Point: (27.821, 312.5)Temperatura (degC), Point: (29.128, 312.5)Temperatura (degC), Point: (29.99, 312.5)Temperatura (degC), Point: (0, 375)Temperatura (degC), Point: (15, 375)Temperatura (degC), Point: (25.641, 375)Temperatura (degC), Point: (27.821, 375)Temperatura (degC), Point: (29.128, 375)Temperatura (degC), Point: (29.99, 375)Temperatura (degC), Point: (0, 437.5)Temperatura (degC), Point: (15, 437.5)Temperatura (degC), Point: (25.641, 437.5)Temperatura (degC), Point: (27.821, 437.5)Temperatura (degC), Point: (29.128, 437.5)Temperatura (degC), Point: (29.99, 437.5)Temperatura (degC), Point: (0, 468.75)Temperatura (degC), Point: (15, 468.75)Temperatura (degC), Point: (25.641, 468.75)Temperatura (degC), Point: (27.821, 468.75)Temperatura (degC), Point: (29.128, 468.75)Temperatura (degC), Point: (29.99, 468.75)Temperatura (degC), Point: (0, 492.19)Temperatura (degC), Point: (15, 492.19)Temperatura (degC), Point: (25.641, 492.19)Temperatura (degC), Point: (27.821, 492.19)Temperatura (degC), Point: (29.128, 492.19)Temperatura (degC), Point: (29.99, 492.19)
20.000                   1.5000                   2.0000                   2000.0                   4000.0                   0.0000                   20.000                   20.000                   20.000                   20.000                   20.066                   20.230                   20.000                   20.000                   20.000                   20.000                   20.069                   20.235                   20.000                   20.000                   20.000                   20.000                   20.071                   20.239                   20.000                   20.000                   20.000                   20.000                   20.070                   20.237                   20.000                   20.000                   20.000                   20.000                   20.066                   20.230                   20.000                   20.000                   20.000                   20.000                   20.068                   20.234                   20.000                   20.000                   20.000                   20.000                   20.071                   20.239                   20.000                   20.000                   20.000                   20.000                   20.070                   20.238                   20.000                   20.000                   20.000                   20.000                   20.069                   20.236                   20.000                   20.000                   20.000                   20.000                   20.053                   20.204
20.000                   1.5000                   2.0000                   2000.0                   4000.0                   5.0000                   28.853                   62.201                   198.61                   253.77                   288.30                   298.91                   29.051                   63.377                   205.09                   261.88                   297.60                   308.60                   29.014                   63.313                   205.99                   263.62                   300.00                   311.08                   29.023                   63.347                   205.71                   263.01                   298.97                   310.01                   28.905                   62.467                   200.28                   255.88                   290.70                   301.39                   28.981                   63.009                   203.63                   260.04                   295.55                   306.47                   29.063                   63.477                   206.45                   264.25                   300.61                   311.60                   29.023                   63.390                   206.32                   264.01                   300.28                   311.36                   28.768                   62.319                   202.44                   259.00                   294.79                   305.74                   29.963                   59.172                   171.47                   214.36                   242.19                   251.21
20.000                   1.5000                   2.0000                   2000.0                   4000.0                   10.000                   86.911                   164.89                   382.04                   461.98                   507.11                   519.49                   87.576                   166.32                   385.67                   466.49                   511.83                   524.19                   87.467                   166.54                   388.09                   469.77                   515.15                   527.51                   87.720                   166.86                   387.60                   468.66                   514.07                   526.44                   87.105                   165.27                   383.01                   462.85                   507.60                   519.85                   87.347                   165.95                   385.20                   466.00                   511.46                   523.75                   87.670                   166.96                   389.33                   471.43                   516.88                   529.25                   87.511                   166.55                   387.61                   468.87                   514.30                   526.69                   85.665                   162.92                   379.21                   458.75                   503.79                   516.12                   85.957                   152.90                   325.63                   384.86                   420.27                   430.63
20.000                   1.5000                   2.0000                   2000.0                   4000.0                   15.000                   177.14                   280.09                   551.09                   648.16                   699.26                   712.46                   177.89                   281.42                   555.21                   653.61                   705.97                   719.55                   177.85                   281.92                   558.34                   657.86                   711.37                   725.19                   178.21                   282.05                   556.72                   655.32                   708.19                   721.89                   177.43                   280.57                   551.87                   648.59                   700.19                   713.60                   177.63                   281.04                   554.46                   652.67                   705.70                   719.32                   178.09                   282.24                   558.60                   658.43                   712.34                   726.19                   177.71                   281.51                   556.54                   655.31                   708.45                   722.16                   173.70                   275.27                   545.19                   642.17                   693.54                   706.73                   171.82                   259.66                   474.53                   546.55                   587.40                   598.52
20.000                   1.5000                   2.0000                   2000.0                   4000.0                   20.000                   275.48                   391.01                   690.20                   807.44                   870.96                   885.45                   276.18                   392.28                   694.67                   815.17                   879.82                   894.49                   276.29                   393.03                   698.70                   822.52                   888.28                   903.06                   276.55                   392.86                   696.11                   817.45                   882.53                   897.28                   275.80                   391.45                   690.63                   807.95                   871.72                   886.27                   275.89                   391.78                   692.92                   812.69                   877.17                   891.82                   276.43                   393.10                   698.41                   821.56                   887.09                   901.86                   275.81                   392.15                   695.88                   817.60                   882.82                   897.59                   269.83                   383.80                   679.93                   793.74                   856.52                   871.01                   261.78                   362.61                   602.50                   683.31                   725.37                   735.81
20.000                   1.5000                   2.0000                   2000.0                   4000.0                   25.000                   368.46                   490.11                   820.69                   954.17                   1009.9                   1020.1                   369.34                   492.45                   834.95                   970.23                   1024.5                   1033.9                   369.77                   495.44                   905.06                   1050.0                   1094.9                   1100.5                   369.72                   493.32                   845.31                   983.80                   1037.3                   1046.1                   368.76                   490.24                   814.72                   944.12                   998.99                   1009.2                   368.90                   491.11                   822.05                   953.74                   1008.6                   1018.6                   369.76                   495.04                   895.12                   1040.8                   1087.2                   1093.1                   368.87                   493.10                   861.78                   1005.3                   1056.9                   1064.6                   360.68                   480.03                   797.58                   927.45                   984.24                   995.15                   348.19                   452.56                   682.66                   754.69                   793.24                   802.38
20.000                   1.5000                   2.0000                   2000.0                   4000.0                   30.000                   452.05                   572.72                   877.66                   969.53                   1006.5                   1012.6                   454.52                   582.04                   959.71                   1059.0                   1086.9                   1088.8                   456.37                   594.77                   1105.4                   1182.5                   1197.7                   1195.9                   455.10                   584.57                   990.48                   1087.5                   1112.0                   1112.8                   452.54                   572.45                   865.21                   952.29                   987.97                   994.01                   453.34                   576.81                   901.31                   994.69                   1028.9                   1033.6                   456.09                   593.02                   1091.3                   1171.3                   1187.5                   1185.9                   454.64                   587.68                   1042.2                   1132.1                   1152.1                   1151.5                   441.81                   559.12                   857.18                   955.65                   996.62                   1003.8                   425.25                   524.69                   723.52                   780.55                   810.30                   816.83
20.000                   1.5000                   2.0000                   2000.0                   4000.0                   35.000                   525.36                   638.26                   900.23                   962.99                   988.60                   992.42                   531.39                   659.62                   1046.3                   1108.3                   1121.4                   1120.0                   536.09                   685.32                   1178.4                   1218.3                   1223.3                   1219.4                   532.46                   664.49                   1078.1                   1134.4                   1145.3                   1143.2                   526.39                   638.28                   891.59                   952.67                   977.84                   981.68                   528.72                   648.63                   965.35                   1034.5                   1055.0                   1056.2                   535.38                   681.94                   1166.8                   1208.6                   1214.3                   1210.5                   533.09                   673.27                   1134.5                   1182.3                   1189.9                   1186.7                   511.34                   620.22                   885.47                   962.56                   995.26                   1000.7                   490.58                   580.83                   749.44                   796.69                   820.96                   826.07
20.000                   1.5000                   2.0000                   2000.0                   4000.0                   40.000                   586.77                   689.90                   929.82                   977.70                   996.68                   998.95                   596.73                   722.93                   1085.8                   1125.6                   1132.6                   1129.9                   604.56                   763.93                   1190.8                   1215.5                   1216.8                   1212.2                   598.34                   730.17                   1111.0                   1146.9                   1152.3                   1149.1                   588.31                   690.23                   924.30                   971.68                   990.72                   993.08                   592.41                   706.49                   1014.4                   1063.9                   1076.3                   1075.5                   603.43                   758.33                   1181.5                   1207.4                   1209.2                   1204.8                   600.66                   747.39                   1162.0                   1191.2                   1194.1                   1190.0                   567.41                   665.26                   905.03                   970.20                   998.34                   1002.8                   543.19                   622.82                   770.22                   812.34                   833.73                   838.07
20.000                   1.5000                   2.0000                   2000.0                   4000.0                   45.000                   639.91                   734.48                   967.97                   1006.5                   1020.3                   1021.0                   652.90                   782.65                   1108.3                   1134.4                   1137.6                   1134.2                   663.20                   841.83                   1189.0                   1204.4                   1203.5                   1198.7                   654.94                   793.42                   1127.5                   1151.0                   1153.1                   1149.3                   641.68                   734.78                   962.69                   1001.0                   1015.0                   1015.9                   647.27                   758.03                   1052.3                   1086.8                   1093.9                   1091.7                   661.77                   834.28                   1181.7                   1198.0                   1197.5                   1192.8                   658.98                   823.14                   1172.0                   1190.0                   1190.0                   1185.4                   614.88                   702.13                   922.57                   978.77                   1003.3                   1006.9                   588.14                   657.87                   789.67                   828.09                   847.42                   851.17
20.000                   1.5000                   2.0000                   2000.0                   4000.0                   50.000                   682.91                   780.60                   1020.5                   1052.1                   1059.8                   1058.3                   696.86                   843.02                   1120.2                   1138.1                   1139.0                   1135.1                   707.70                   906.85                   1181.1                   1191.3                   1189.3                   1184.4                   698.99                   855.10                   1134.4                   1150.5                   1150.7                   1146.6                   684.50                   780.15                   1010.2                   1041.7                   1050.1                   1049.0                   690.76                   812.23                   1079.3                   1103.5                   1107.0                   1104.0                   706.27                   899.04                   1175.4                   1186.3                   1184.6                   1179.8                   704.16                   892.59                   1173.1                   1184.7                   1183.2                   1178.4                   653.31                   731.60                   937.58                   985.62                   1006.6                   1009.4                   624.80                   686.10                   807.35                   842.12                   859.48                   862.67
20.000                   1.5000                   2.0000                   2000.0                   4000.0                   55.000                   716.10                   835.96                   1067.5                   1088.8                   1091.6                   1088.6                   729.79                   898.20                   1127.5                   1139.7                   1138.9                   1134.7                   741.42                   955.95                   1171.2                   1178.1                   1175.4                   1170.5                   731.88                   909.06                   1137.0                   1148.1                   1147.0                   1142.6                   717.27                   834.31                   1058.7                   1081.0                   1084.4                   1081.7                   723.60                   867.43                   1099.7                   1116.1                   1117.0                   1113.3                   739.79                   948.99                   1166.8                   1174.3                   1171.7                   1166.9                   738.57                   948.62                   1170.0                   1177.7                   1175.1                   1170.3                   684.74                   758.17                   951.91                   992.60                   1010.2                   1012.1                   655.34                   709.15                   822.90                   854.10                   869.59                   872.26
20.000                   1.5000                   2.0000                   2000.0                   4000.0                   60.000                   750.73                   893.68                   1096.5                   1110.2                   1110.2                   1106.5                   769.41                   946.62                   1134.2                   1142.4                   1140.5                   1136.1                   786.13                   993.70                   1165.3                   1170.0                   1166.8                   1161.9                   772.22                   955.16                   1140.6                   1148.2                   1146.0                   1141.5                   751.86                   891.66                   1090.9                   1105.3                   1105.8                   1102.1                   760.21                   919.71                   1115.2                   1126.2                   1125.3                   1121.2                   783.77                   987.97                   1162.0                   1167.1                   1164.0                   1159.2                   783.48                   991.59                   1167.8                   1172.9                   1169.7                   1164.8                   708.70                   786.53                   972.28                   1008.0                   1022.3                   1023.3                   679.20                   727.45                   837.24                   865.81                   880.00                   882.28
20.000                   1.5000                   2.0000                   2000.0                   4000.0                   65.000                   794.51                   949.93                   1116.3                   1124.5                   1122.9                   1118.7                   822.16                   991.18                   1141.1                   1146.2                   1143.5                   1138.8                   845.14                   1026.9                   1162.8                   1165.8                   1162.2                   1157.3                   825.87                   997.36                   1145.3                   1150.1                   1147.2                   1142.5                   796.03                   948.25                   1113.0                   1121.6                   1120.2                   1116.1                   808.03                   969.41                   1128.0                   1134.9                   1132.7                   1128.4                   841.92                   1022.5                   1160.4                   1163.6                   1160.1                   1155.2                   842.71                   1028.0                   1167.1                   1170.2                   1166.5                   1161.5                   728.23                   817.35                   998.56                   1030.7                   1041.6                   1041.4                   698.83                   743.26                   851.18                   877.73                   890.92                   892.88
20.000                   1.5000                   2.0000                   2000.0                   4000.0                   70.000                   854.32                   999.44                   1131.5                   1136.1                   1133.3                   1128.8                   882.04                   1030.3                   1148.5                   1151.4                   1147.9                   1143.1                   904.11                   1056.3                   1164.1                   1165.5                   1161.5                   1156.5                   885.42                   1034.6                   1151.4                   1154.1                   1150.5                   1145.7                   855.93                   998.33                   1129.5                   1134.4                   1131.7                   1127.2                   867.50                   1013.5                   1139.3                   1143.1                   1140.1                   1135.5                   900.97                   1053.0                   1162.3                   1163.9                   1160.0                   1155.0                   901.79                   1058.4                   1168.6                   1170.1                   1166.0                   1161.0                   749.57                   851.73                   1029.2                   1056.3                   1063.8                   1062.4                   714.22                   758.61                   865.09                   889.91                   902.21                   903.87
20.000                   1.5000                   2.0000                   2000.0                   4000.0                   75.000                   918.16                   1044.1                   1144.7                   1146.5                   1142.9                   1138.1                   942.39                   1065.8                   1156.5                   1157.4                   1153.3                   1148.4                   960.85                   1083.4                   1167.3                   1167.5                   1163.1                   1158.0                   945.01                   1068.5                   1158.4                   1159.2                   1155.1                   1150.2                   919.74                   1043.7                   1143.7                   1145.6                   1142.0                   1137.2                   929.31                   1053.7                   1150.0                   1151.4                   1147.6                   1142.8                   958.15                   1081.1                   1166.0                   1166.3                   1161.9                   1156.9                   958.38                   1085.5                   1171.5                   1171.6                   1167.2                   1162.0                   774.51                   887.93                   1060.0                   1081.6                   1085.8                   1083.3                   727.71                   774.17                   879.10                   902.28                   913.71                   915.08