% Model:              batchmodel_COIL_N_20_COIL_kr_1.5_COIL_kh_2_FUNZ_freq_10000_FUNZ_I_eff_2500.mph
% Version:            COMSOL 6.0.0.318
% Date:               Feb 9 2022, 01:58
% Table:              Tabella 1 - GRIGLIA_T
% COIL_N                 COIL_kr                  COIL_kh                  FUNZ_freq                FUNZ_I_eff               Time (s)                 Temperatura (degC), Point: (0, 0)Temperatura (degC), Point: (15, 0)Temperatura (degC), Point: (28.051, 0)Temperatura (degC), Point: (29.025, 0)Temperatura (degC), Point: (29.61, 0)Temperatura (degC), Point: (29.99, 0)Temperatura (degC), Point: (0, 62.5)Temperatura (degC), Point: (15, 62.5)Temperatura (degC), Point: (28.051, 62.5)Temperatura (degC), Point: (29.025, 62.5)Temperatura (degC), Point: (29.61, 62.5)Temperatura (degC), Point: (29.99, 62.5)Temperatura (degC), Point: (0, 125)Temperatura (degC), Point: (15, 125)Temperatura (degC), Point: (28.051, 125)Temperatura (degC), Point: (29.025, 125)Temperatura (degC), Point: (29.61, 125)Temperatura (degC), Point: (29.99, 125)Temperatura (degC), Point: (0, 187.5)Temperatura (degC), Point: (15, 187.5)Temperatura (degC), Point: (28.051, 187.5)Temperatura (degC), Point: (29.025, 187.5)Temperatura (degC), Point: (29.61, 187.5)Temperatura (degC), Point: (29.99, 187.5)Temperatura (degC), Point: (0, 250)Temperatura (degC), Point: (15, 250)Temperatura (degC), Point: (28.051, 250)Temperatura (degC), Point: (29.025, 250)Temperatura (degC), Point: (29.61, 250)Temperatura (degC), Point: (29.99, 250)Temperatura (degC), Point: (0, 312.5)Temperatura (degC), Point: (15, 312.5)Temperatura (degC), Point: (28.051, 312.5)Temperatura (degC), Point: (29.025, 312.5)Temperatura (degC), Point: (29.61, 312.5)Temperatura (degC), Point: (29.99, 312.5)Temperatura (degC), Point: (0, 375)Temperatura (degC), Point: (15, 375)Temperatura (degC), Point: (28.051, 375)Temperatura (degC), Point: (29.025, 375)Temperatura (degC), Point: (29.61, 375)Temperatura (degC), Point: (29.99, 375)Temperatura (degC), Point: (0, 437.5)Temperatura (degC), Point: (15, 437.5)Temperatura (degC), Point: (28.051, 437.5)Temperatura (degC), Point: (29.025, 437.5)Temperatura (degC), Point: (29.61, 437.5)Temperatura (degC), Point: (29.99, 437.5)Temperatura (degC), Point: (0, 468.75)Temperatura (degC), Point: (15, 468.75)Temperatura (degC), Point: (28.051, 468.75)Temperatura (degC), Point: (29.025, 468.75)Temperatura (degC), Point: (29.61, 468.75)Temperatura (degC), Point: (29.99, 468.75)Temperatura (degC), Point: (0, 492.19)Temperatura (degC), Point: (15, 492.19)Temperatura (degC), Point: (28.051, 492.19)Temperatura (degC), Point: (29.025, 492.19)Temperatura (degC), Point: (29.61, 492.19)Temperatura (degC), Point: (29.99, 492.19)
20.000                   1.5000                   2.0000                   10000                    2500.0                   0.0000                   20.000                   20.000                   20.000                   20.000                   20.139                   20.601                   20.000                   20.000                   20.000                   20.000                   20.147                   20.622                   20.000                   20.000                   20.000                   20.000                   20.152                   20.634                   20.000                   20.000                   20.000                   20.000                   20.149                   20.627                   20.000                   20.000                   20.000                   20.000                   20.140                   20.603                   20.000                   20.000                   20.000                   20.000                   20.145                   20.616                   20.000                   20.000                   20.000                   20.000                   20.152                   20.634                   20.000                   20.000                   20.000                   20.000                   20.151                   20.630                   20.000                   20.000                   20.000                   20.000                   20.149                   20.626                   20.000                   20.000                   20.000                   20.000                   20.132                   20.583
20.000                   1.5000                   2.0000                   10000                    2500.0                   5.0000                   31.407                   69.773                   309.13                   347.17                   369.86                   377.18                   31.574                   70.863                   314.14                   353.19                   376.69                   384.08                   31.810                   72.233                   324.42                   364.56                   388.37                   395.96                   31.720                   71.535                   315.99                   355.03                   378.55                   386.02                   31.464                   70.282                   309.77                   347.92                   370.94                   378.33                   31.554                   70.744                   313.51                   352.50                   376.12                   383.64                   31.807                   72.096                   321.20                   360.74                   384.26                   391.81                   31.610                   71.213                   318.62                   358.66                   382.75                   390.38                   31.596                   70.983                   317.06                   356.77                   380.77                   388.37                   38.654                   76.546                   291.88                   324.19                   343.79                   350.26
20.000                   1.5000                   2.0000                   10000                    2500.0                   10.000                   96.651                   186.86                   561.37                   618.81                   650.72                   659.71                   97.198                   188.26                   567.69                   626.51                   659.17                   668.31                   97.936                   190.00                   572.40                   631.36                   664.66                   673.88                   97.565                   188.97                   571.43                   631.56                   664.98                   674.14                   96.831                   187.36                   563.76                   622.04                   654.66                   663.65                   97.078                   188.00                   567.27                   626.09                   659.02                   668.18                   97.939                   190.11                   576.97                   637.54                   671.61                   681.03                   97.412                   189.07                   572.75                   632.63                   665.94                   675.14                   97.124                   187.62                   564.79                   623.29                   655.75                   664.74                   106.24                   190.72                   514.72                   561.85                   588.81                   596.58
20.000                   1.5000                   2.0000                   10000                    2500.0                   15.000                   199.25                   316.11                   775.68                   859.36                   901.87                   912.07                   199.93                   317.61                   784.44                   870.37                   913.45                   923.74                   200.63                   318.89                   791.95                   879.43                   922.98                   933.36                   200.14                   317.92                   787.34                   874.49                   917.94                   928.24                   199.42                   316.57                   777.20                   861.38                   903.99                   914.18                   199.68                   317.17                   781.26                   866.48                   909.45                   919.71                   200.78                   319.32                   795.61                   884.80                   928.47                   938.74                   200.13                   318.21                   790.15                   877.85                   921.55                   931.90                   198.96                   315.39                   775.84                   859.82                   902.78                   913.20                   203.26                   313.00                   697.12                   753.78                   785.64                   794.12
20.000                   1.5000                   2.0000                   10000                    2500.0                   20.000                   306.26                   434.99                   924.17                   989.95                   1019.3                   1025.5                   307.05                   436.62                   901.35                   958.45                   984.91                   990.74                   307.75                   440.64                   1092.1                   1141.3                   1153.2                   1153.6                   307.13                   437.78                   922.68                   975.60                   998.21                   1002.9                   306.35                   435.20                   924.88                   991.21                   1020.8                   1027.0                   306.68                   435.88                   897.26                   954.46                   981.07                   986.97                   308.01                   441.50                   1125.1                   1169.7                   1180.1                   1180.1                   307.13                   437.73                   962.25                   1024.9                   1047.5                   1051.2                   304.83                   433.23                   993.14                   1072.4                   1096.1                   1099.2                   304.98                   424.10                   800.68                   852.72                   879.31                   885.79
20.000                   1.5000                   2.0000                   10000                    2500.0                   25.000                   402.98                   529.90                   1042.5                   1091.7                   1105.3                   1106.4                   404.40                   532.50                   936.49                   973.06                   990.06                   993.69                   406.29                   543.94                   1117.8                   1143.5                   1149.0                   1148.3                   404.98                   536.88                   1005.0                   1043.3                   1056.2                   1057.8                   403.01                   530.52                   1067.5                   1111.5                   1122.5                   1123.0                   403.83                   531.22                   940.93                   980.76                   999.27                   1003.2                   406.66                   545.29                   1131.8                   1155.8                   1160.7                   1159.8                   404.73                   537.12                   1043.2                   1080.0                   1090.4                   1091.0                   401.12                   533.00                   1123.1                   1152.4                   1158.7                   1158.0                   396.22                   510.71                   848.44                   889.71                   910.86                   915.88
20.000                   1.5000                   2.0000                   10000                    2500.0                   30.000                   484.31                   605.10                   1089.0                   1116.6                   1123.1                   1122.6                   486.43                   607.23                   966.88                   992.58                   1003.9                   1006.1                   489.72                   621.91                   1114.0                   1132.6                   1136.3                   1135.2                   487.67                   613.76                   1065.2                   1091.7                   1098.5                   1098.4                   484.49                   606.63                   1094.5                   1120.2                   1126.1                   1125.5                   485.54                   605.67                   994.38                   1026.0                   1038.1                   1039.9                   490.12                   623.30                   1123.6                   1141.1                   1144.3                   1143.1                   487.40                   614.53                   1083.8                   1107.9                   1113.6                   1113.1                   483.02                   612.49                   1125.0                   1143.8                   1147.3                   1146.2                   472.27                   577.82                   882.43                   917.16                   934.93                   939.04
20.000                   1.5000                   2.0000                   10000                    2500.0                   35.000                   550.72                   662.95                   1083.8                   1104.2                   1108.8                   1108.1                   553.08                   664.56                   1012.6                   1034.0                   1041.6                   1042.2                   556.98                   679.07                   1107.1                   1121.9                   1124.6                   1123.4                   554.59                   671.80                   1088.5                   1106.9                   1110.9                   1110.1                   551.06                   664.66                   1089.9                   1109.2                   1113.3                   1112.5                   551.85                   662.88                   1043.6                   1068.3                   1075.6                   1075.8                   557.33                   680.32                   1114.2                   1128.2                   1130.6                   1129.3                   554.40                   672.58                   1097.2                   1114.7                   1118.2                   1117.3                   549.76                   671.68                   1119.6                   1133.8                   1136.2                   1134.9                   534.05                   629.68                   908.13                   937.08                   951.91                   955.26
20.000                   1.5000                   2.0000                   10000                    2500.0                   40.000                   606.42                   709.70                   1078.3                   1094.1                   1097.6                   1096.7                   608.72                   711.65                   1053.6                   1070.6                   1075.1                   1074.6                   612.65                   724.73                   1102.3                   1114.2                   1116.1                   1114.9                   610.22                   718.63                   1095.8                   1109.4                   1111.9                   1110.7                   606.81                   711.47                   1084.3                   1099.4                   1102.4                   1101.5                   607.21                   709.60                   1070.9                   1088.8                   1093.1                   1092.4                   612.91                   725.71                   1106.7                   1118.2                   1119.9                   1118.6                   610.08                   719.15                   1100.6                   1113.9                   1116.3                   1115.1                   605.47                   718.89                   1114.2                   1125.6                   1127.3                   1125.9                   586.34                   672.66                   930.09                   953.87                   966.05                   968.70
20.000                   1.5000                   2.0000                   10000                    2500.0                   45.000                   652.40                   749.75                   1081.6                   1093.8                   1096.1                   1095.0                   654.49                   752.52                   1079.5                   1091.9                   1094.3                   1093.2                   658.15                   764.53                   1103.0                   1112.6                   1113.8                   1112.4                   655.81                   758.90                   1099.0                   1109.5                   1111.1                   1109.8                   652.75                   751.41                   1085.4                   1097.2                   1099.3                   1098.2                   652.81                   749.72                   1083.8                   1096.8                   1099.3                   1098.3                   658.31                   765.19                   1104.9                   1114.3                   1115.5                   1114.1                   655.72                   759.20                   1101.8                   1112.2                   1113.7                   1112.4                   651.30                   758.99                   1111.2                   1120.5                   1121.6                   1120.1                   630.31                   708.50                   952.31                   971.77                   981.56                   983.57
20.000                   1.5000                   2.0000                   10000                    2500.0                   50.000                   689.47                   788.53                   1089.6                   1098.9                   1100.3                   1099.0                   691.27                   792.10                   1094.7                   1103.7                   1104.9                   1103.6                   694.47                   803.15                   1107.3                   1115.0                   1115.7                   1114.1                   692.35                   797.50                   1103.4                   1111.6                   1112.5                   1111.0                   689.77                   789.83                   1091.6                   1100.8                   1102.0                   1100.7                   689.59                   788.31                   1092.9                   1102.5                   1103.9                   1102.5                   694.55                   803.51                   1107.8                   1115.5                   1116.1                   1114.6                   692.29                   797.79                   1105.0                   1113.1                   1114.0                   1112.5                   688.27                   796.74                   1111.3                   1118.9                   1119.5                   1117.9                   667.05                   739.62                   978.16                   994.38                   1001.9                   1003.2
20.000                   1.5000                   2.0000                   10000                    2500.0                   55.000                   717.88                   827.43                   1098.5                   1105.6                   1106.2                   1104.7                   719.50                   831.38                   1104.8                   1111.6                   1112.1                   1110.5                   722.43                   840.89                   1113.4                   1119.4                   1119.6                   1118.0                   720.35                   835.41                   1109.3                   1115.8                   1116.2                   1114.6                   718.08                   828.38                   1099.6                   1106.7                   1107.3                   1105.8                   717.73                   826.99                   1101.5                   1108.8                   1109.4                   1107.9                   722.47                   841.01                   1113.3                   1119.4                   1119.5                   1117.9                   720.34                   835.77                   1110.5                   1116.9                   1117.2                   1115.6                   716.20                   832.98                   1114.0                   1120.3                   1120.5                   1118.8                   695.13                   772.67                   1013.3                   1026.8                   1032.1                   1032.4
20.000                   1.5000                   2.0000                   10000                    2500.0                   60.000                   741.34                   865.72                   1106.9                   1112.4                   1112.4                   1110.8                   742.95                   869.62                   1112.8                   1118.1                   1118.0                   1116.3                   746.02                   877.43                   1119.8                   1124.6                   1124.3                   1122.6                   743.67                   872.31                   1116.0                   1121.0                   1120.9                   1119.2                   741.40                   866.38                   1107.8                   1113.2                   1113.2                   1111.5                   740.89                   865.16                   1109.7                   1115.3                   1115.3                   1113.6                   746.06                   877.37                   1119.6                   1124.4                   1124.1                   1122.4                   743.71                   872.69                   1117.0                   1122.0                   1121.9                   1120.2                   738.66                   867.69                   1118.1                   1123.1                   1123.0                   1121.2                   717.14                   809.90                   1056.3                   1066.8                   1069.7                   1069.0
20.000                   1.5000                   2.0000                   10000                    2500.0                   65.000                   770.76                   902.56                   1115.3                   1119.3                   1118.8                   1117.0                   772.55                   906.29                   1120.8                   1124.6                   1124.1                   1122.3                   775.80                   912.59                   1126.6                   1130.1                   1129.5                   1127.6                   773.05                   907.88                   1122.9                   1126.6                   1126.1                   1124.2                   770.81                   903.01                   1115.9                   1119.8                   1119.3                   1117.6                   770.01                   901.93                   1117.8                   1121.9                   1121.4                   1119.7                   775.81                   912.42                   1126.2                   1129.8                   1129.2                   1127.3                   773.10                   908.26                   1123.8                   1127.6                   1127.0                   1125.2                   766.15                   901.31                   1122.9                   1126.8                   1126.3                   1124.5                   741.85                   848.76                   1091.1                   1098.8                   1099.8                   1098.4
20.000                   1.5000                   2.0000                   10000                    2500.0                   70.000                   810.34                   936.92                   1123.5                   1126.3                   1125.5                   1123.6                   812.61                   940.27                   1128.6                   1131.4                   1130.5                   1128.6                   816.11                   945.42                   1133.8                   1136.4                   1135.4                   1133.5                   812.76                   941.17                   1130.2                   1133.0                   1132.1                   1130.2                   810.59                   937.27                   1124.0                   1126.8                   1125.9                   1124.0                   809.31                   936.29                   1125.9                   1128.8                   1128.0                   1126.1                   816.08                   945.22                   1133.4                   1136.1                   1135.1                   1133.1                   812.75                   941.50                   1131.2                   1134.0                   1133.0                   1131.1                   802.21                   933.08                   1128.9                   1131.8                   1131.0                   1129.1                   771.19                   890.36                   1111.9                   1117.1                   1117.0                   1115.3
20.000                   1.5000                   2.0000                   10000                    2500.0                   75.000                   851.02                   969.87                   1131.8                   1133.6                   1132.4                   1130.4                   853.56                   972.85                   1136.6                   1138.4                   1137.2                   1135.2                   857.10                   976.98                   1141.3                   1143.0                   1141.7                   1139.7                   853.38                   973.18                   1137.9                   1139.7                   1138.4                   1136.4                   851.41                   970.13                   1132.2                   1134.0                   1132.8                   1130.8                   849.77                   969.25                   1134.1                   1136.0                   1134.8                   1132.8                   857.04                   976.76                   1140.9                   1142.7                   1141.4                   1139.3                   853.31                   973.45                   1138.8                   1140.6                   1139.4                   1137.4                   840.05                   963.90                   1135.3                   1137.4                   1136.2                   1134.2                   805.21                   931.11                   1131.2                   1134.2                   1133.3                   1131.3