% Model:              batchmodel_COIL_N_20_COIL_kr_2.25_COIL_kh_1.5_FUNZ_freq_6000_FUNZ_I_eff_2500.mph
% Version:            COMSOL 6.0.0.318
% Date:               Feb 9 2022, 02:30
% Table:              Tabella 1 - GRIGLIA_T
% COIL_N                 COIL_kr                  COIL_kh                  FUNZ_freq                FUNZ_I_eff               Time (s)                 Temperatura (degC), Point: (0, 0)Temperatura (degC), Point: (15, 0)Temperatura (degC), Point: (27.483, 0)Temperatura (degC), Point: (28.742, 0)Temperatura (degC), Point: (29.497, 0)Temperatura (degC), Point: (29.99, 0)Temperatura (degC), Point: (0, 62.5)Temperatura (degC), Point: (15, 62.5)Temperatura (degC), Point: (27.483, 62.5)Temperatura (degC), Point: (28.742, 62.5)Temperatura (degC), Point: (29.497, 62.5)Temperatura (degC), Point: (29.99, 62.5)Temperatura (degC), Point: (0, 125)Temperatura (degC), Point: (15, 125)Temperatura (degC), Point: (27.483, 125)Temperatura (degC), Point: (28.742, 125)Temperatura (degC), Point: (29.497, 125)Temperatura (degC), Point: (29.99, 125)Temperatura (degC), Point: (0, 187.5)Temperatura (degC), Point: (15, 187.5)Temperatura (degC), Point: (27.483, 187.5)Temperatura (degC), Point: (28.742, 187.5)Temperatura (degC), Point: (29.497, 187.5)Temperatura (degC), Point: (29.99, 187.5)Temperatura (degC), Point: (0, 250)Temperatura (degC), Point: (15, 250)Temperatura (degC), Point: (27.483, 250)Temperatura (degC), Point: (28.742, 250)Temperatura (degC), Point: (29.497, 250)Temperatura (degC), Point: (29.99, 250)Temperatura (degC), Point: (0, 312.5)Temperatura (degC), Point: (15, 312.5)Temperatura (degC), Point: (27.483, 312.5)Temperatura (degC), Point: (28.742, 312.5)Temperatura (degC), Point: (29.497, 312.5)Temperatura (degC), Point: (29.99, 312.5)Temperatura (degC), Point: (0, 375)Temperatura (degC), Point: (15, 375)Temperatura (degC), Point: (27.483, 375)Temperatura (degC), Point: (28.742, 375)Temperatura (degC), Point: (29.497, 375)Temperatura (degC), Point: (29.99, 375)Temperatura (degC), Point: (0, 437.5)Temperatura (degC), Point: (15, 437.5)Temperatura (degC), Point: (27.483, 437.5)Temperatura (degC), Point: (28.742, 437.5)Temperatura (degC), Point: (29.497, 437.5)Temperatura (degC), Point: (29.99, 437.5)Temperatura (degC), Point: (0, 468.75)Temperatura (degC), Point: (15, 468.75)Temperatura (degC), Point: (27.483, 468.75)Temperatura (degC), Point: (28.742, 468.75)Temperatura (degC), Point: (29.497, 468.75)Temperatura (degC), Point: (29.99, 468.75)Temperatura (degC), Point: (0, 492.19)Temperatura (degC), Point: (15, 492.19)Temperatura (degC), Point: (27.483, 492.19)Temperatura (degC), Point: (28.742, 492.19)Temperatura (degC), Point: (29.497, 492.19)Temperatura (degC), Point: (29.99, 492.19)
20.000                   2.2500                   1.5000                   6000.0                   2500.0                   0.0000                   20.000                   20.000                   20.000                   20.000                   20.078                   20.373                   20.000                   20.000                   20.000                   20.000                   20.078                   20.375                   20.000                   20.000                   20.000                   20.000                   20.079                   20.377                   20.000                   20.000                   20.000                   20.000                   20.079                   20.376                   20.000                   20.000                   20.000                   20.000                   20.078                   20.373                   20.000                   20.000                   20.000                   20.000                   20.078                   20.374                   20.000                   20.000                   20.000                   20.000                   20.079                   20.376                   20.000                   20.000                   20.000                   20.000                   20.079                   20.377                   20.000                   20.000                   20.000                   20.000                   20.075                   20.366                   20.000                   20.000                   20.000                   20.000                   20.057                   20.318
20.000                   2.2500                   1.5000                   6000.0                   2500.0                   5.0000                   29.107                   59.068                   221.54                   254.13                   274.09                   281.15                   29.207                   59.560                   224.51                   257.48                   278.01                   285.32                   29.129                   59.265                   224.39                   257.82                   278.61                   285.88                   29.138                   59.375                   225.28                   258.29                   278.72                   285.99                   29.190                   59.479                   223.58                   256.18                   276.46                   283.59                   29.153                   59.372                   224.82                   257.72                   277.95                   285.09                   29.180                   59.508                   225.60                   258.30                   278.20                   285.48                   29.098                   59.158                   223.00                   255.95                   276.52                   283.64                   28.565                   56.679                   211.09                   241.70                   260.60                   267.19                   38.750                   63.727                   191.77                   215.54                   229.31                   234.45
20.000                   2.2500                   1.5000                   6000.0                   2500.0                   10.000                   81.513                   148.68                   380.80                   422.23                   446.71                   454.11                   81.977                   149.54                   382.35                   423.71                   448.14                   455.53                   81.723                   149.14                   382.03                   423.55                   448.14                   455.58                   81.829                   149.43                   382.67                   424.10                   448.46                   455.85                   82.007                   149.63                   382.40                   423.71                   448.03                   455.41                   81.715                   149.09                   381.63                   423.02                   447.45                   454.84                   81.884                   149.46                   382.88                   424.48                   449.07                   456.49                   81.166                   148.04                   379.01                   420.16                   444.44                   451.80                   78.377                   141.30                   356.43                   394.16                   416.62                   423.58                   87.629                   142.07                   307.85                   334.10                   350.12                   355.45
20.000                   2.2500                   1.5000                   6000.0                   2500.0                   15.000                   161.50                   248.33                   533.06                   584.95                   614.17                   622.39                   162.12                   249.17                   535.34                   587.51                   616.69                   624.91                   161.85                   248.94                   536.06                   588.90                   618.33                   626.57                   161.99                   249.14                   535.79                   587.94                   617.34                   625.67                   162.22                   249.32                   535.18                   587.02                   616.23                   624.48                   161.73                   248.64                   534.25                   586.42                   615.64                   623.87                   162.01                   249.13                   535.60                   587.89                   617.20                   625.47                   160.35                   246.66                   530.27                   581.82                   610.89                   619.13                   153.89                   234.69                   497.11                   544.09                   570.82                   578.49                   154.23                   223.31                   420.03                   451.74                   470.49                   476.40
20.000                   2.2500                   1.5000                   6000.0                   2500.0                   20.000                   246.51                   346.57                   672.34                   736.47                   771.49                   780.66                   247.18                   347.38                   673.96                   737.04                   771.79                   781.13                   246.96                   347.30                   675.67                   740.74                   776.18                   785.54                   247.10                   347.42                   674.29                   736.94                   772.03                   781.52                   247.27                   347.45                   673.77                   736.23                   771.13                   780.54                   246.76                   346.90                   673.82                   737.79                   772.99                   782.36                   247.10                   347.39                   674.33                   737.33                   772.19                   781.62                   244.50                   343.91                   666.75                   728.17                   762.84                   772.26                   234.18                   327.32                   627.36                   682.33                   713.09                   721.46                   227.36                   306.23                   526.44                   561.65                   581.73                   587.81
20.000                   2.2500                   1.5000                   6000.0                   2500.0                   25.000                   330.79                   438.28                   799.66                   876.11                   914.30                   923.25                   331.48                   439.23                   803.13                   878.84                   916.80                   925.89                   331.31                   439.19                   805.21                   883.02                   921.66                   930.79                   331.44                   439.26                   803.26                   878.36                   916.48                   925.67                   331.49                   439.08                   802.27                   877.40                   915.60                   924.80                   331.12                   438.86                   803.73                   880.51                   919.01                   928.16                   331.47                   439.34                   803.95                   879.27                   917.24                   926.43                   327.93                   434.74                   792.64                   866.35                   904.29                   913.52                   313.95                   413.94                   735.41                   798.83                   832.99                   841.64                   301.84                   386.30                   619.97                   657.40                   678.32                   684.29
20.000                   2.2500                   1.5000                   6000.0                   2500.0                   30.000                   411.65                   522.68                   926.80                   1002.3                   1034.2                   1040.2                   412.37                   523.79                   930.03                   1004.3                   1035.3                   1041.1                   412.23                   523.83                   949.39                   1030.2                   1059.8                   1064.6                   412.34                   523.82                   933.70                   1009.0                   1039.9                   1045.5                   412.23                   523.39                   931.55                   1007.9                   1039.5                   1045.2                   412.09                   523.49                   930.49                   1005.8                   1037.2                   1043.0                   412.44                   524.03                   934.71                   1010.8                   1041.8                   1047.4                   408.09                   518.65                   924.89                   1002.1                   1034.6                   1040.7                   390.76                   493.65                   838.43                   910.75                   945.41                   953.08                   373.42                   460.47                   695.78                   733.13                   754.38                   760.03
20.000                   2.2500                   1.5000                   6000.0                   2500.0                   35.000                   484.14                   594.58                   988.89                   1045.6                   1065.0                   1067.4                   485.07                   596.70                   970.49                   1015.3                   1032.3                   1034.8                   485.18                   599.48                   1082.8                   1123.6                   1132.8                   1132.2                   485.13                   597.59                   1002.5                   1049.9                   1064.4                   1065.7                   484.71                   595.64                   965.65                   1012.7                   1031.7                   1034.8                   484.73                   595.27                   948.18                   992.51                   1012.0                   1015.5                   485.22                   597.01                   971.74                   1015.9                   1032.4                   1034.8                   480.41                   592.74                   1007.3                   1056.5                   1071.1                   1072.3                   459.97                   562.71                   905.73                   964.18                   991.29                   996.88                   438.76                   524.61                   743.46                   778.32                   798.15                   803.19
20.000                   2.2500                   1.5000                   6000.0                   2500.0                   40.000                   548.32                   653.42                   1061.2                   1099.7                   1108.9                   1108.6                   549.90                   656.89                   1007.3                   1041.6                   1052.7                   1053.6                   550.86                   664.58                   1106.8                   1130.6                   1135.0                   1133.5                   550.27                   659.02                   1026.7                   1058.7                   1068.0                   1068.2                   549.12                   654.37                   987.30                   1022.3                   1035.6                   1037.3                   549.05                   652.77                   959.76                   992.17                   1006.6                   1009.1                   550.12                   656.85                   988.15                   1019.1                   1030.4                   1031.7                   545.49                   655.09                   1024.7                   1056.4                   1065.6                   1065.7                   521.50                   620.74                   936.42                   976.68                   995.06                   998.60                   496.68                   578.41                   781.85                   815.64                   834.03                   838.49
20.000                   2.2500                   1.5000                   6000.0                   2500.0                   45.000                   602.06                   700.62                   1080.4                   1107.4                   1113.1                   1112.1                   604.20                   704.05                   1039.9                   1066.9                   1074.4                   1074.1                   606.34                   715.18                   1106.9                   1124.3                   1127.0                   1125.3                   604.94                   706.41                   1040.9                   1065.9                   1072.8                   1072.4                   602.98                   700.61                   1021.8                   1050.8                   1059.8                   1060.1                   602.64                   697.64                   984.82                   1011.9                   1022.8                   1024.2                   604.52                   703.49                   1009.6                   1034.8                   1043.2                   1043.6                   600.66                   703.43                   1035.7                   1060.3                   1067.1                   1066.8                   574.58                   668.85                   978.72                   1013.2                   1026.7                   1028.6                   546.56                   622.06                   817.48                   849.91                   867.21                   871.24
20.000                   2.2500                   1.5000                   6000.0                   2500.0                   50.000                   646.98                   739.60                   1080.1                   1100.3                   1104.5                   1103.2                   649.37                   742.89                   1061.7                   1082.7                   1087.7                   1086.7                   652.52                   757.28                   1103.5                   1117.1                   1118.8                   1117.0                   650.33                   745.07                   1054.0                   1074.1                   1079.0                   1078.2                   647.83                   738.73                   1048.9                   1071.7                   1077.7                   1077.0                   647.23                   734.59                   1012.0                   1035.1                   1043.0                   1043.3                   649.77                   741.78                   1032.3                   1052.9                   1058.9                   1058.5                   646.77                   742.95                   1050.5                   1070.0                   1074.9                   1074.0                   620.21                   709.60                   1022.4                   1051.8                   1061.0                   1061.4                   589.85                   659.11                   850.30                   880.89                   897.02                   900.63
20.000                   2.2500                   1.5000                   6000.0                   2500.0                   55.000                   684.42                   775.24                   1076.2                   1092.1                   1095.1                   1093.7                   686.76                   779.40                   1075.1                   1091.3                   1094.5                   1093.1                   690.58                   797.08                   1101.0                   1111.9                   1112.9                   1111.0                   687.83                   781.51                   1065.7                   1081.4                   1084.8                   1083.5                   685.08                   774.34                   1066.3                   1083.8                   1087.6                   1086.4                   684.29                   768.88                   1036.6                   1055.8                   1061.3                   1060.7                   687.24                   778.15                   1053.9                   1070.2                   1074.0                   1073.0                   685.09                   780.16                   1065.4                   1080.5                   1083.5                   1082.2                   659.52                   745.37                   1059.1                   1082.1                   1087.8                   1087.0                   627.57                   691.00                   879.32                   907.53                   922.19                   925.30
20.000                   2.2500                   1.5000                   6000.0                   2500.0                   60.000                   714.34                   812.31                   1077.2                   1089.6                   1091.6                   1090.0                   716.49                   817.07                   1083.3                   1095.6                   1097.5                   1095.8                   720.67                   836.02                   1100.3                   1109.0                   1109.4                   1107.4                   717.59                   819.25                   1075.8                   1087.9                   1089.9                   1088.3                   714.80                   811.62                   1077.2                   1090.4                   1092.7                   1091.1                   713.91                   805.49                   1056.5                   1071.6                   1075.0                   1073.8                   717.03                   816.53                   1070.7                   1083.2                   1085.3                   1083.8                   715.61                   818.91                   1077.5                   1088.9                   1090.6                   1088.9                   692.78                   781.70                   1083.4                   1100.9                   1104.2                   1102.7                   660.67                   718.53                   904.12                   929.36                   942.35                   944.96
20.000                   2.2500                   1.5000                   6000.0                   2500.0                   65.000                   739.02                   849.59                   1081.9                   1091.5                   1092.6                   1090.8                   741.02                   854.53                   1088.1                   1097.5                   1098.4                   1096.6                   745.73                   872.94                   1101.2                   1108.1                   1108.1                   1106.0                   742.19                   856.89                   1084.6                   1093.7                   1094.6                   1092.7                   739.25                   849.14                   1083.7                   1093.7                   1094.9                   1093.1                   738.25                   843.07                   1072.1                   1083.3                   1085.1                   1083.5                   741.69                   855.24                   1083.4                   1092.6                   1093.5                   1091.6                   740.84                   857.59                   1087.2                   1095.8                   1096.5                   1094.5                   720.39                   818.18                   1097.4                   1110.3                   1112.1                   1110.3                   688.96                   742.80                   925.18                   947.17                   958.41                   960.53
20.000                   2.2500                   1.5000                   6000.0                   2500.0                   70.000                   762.47                   884.66                   1088.2                   1095.6                   1095.9                   1093.9                   764.75                   889.07                   1093.3                   1100.4                   1100.6                   1098.6                   771.09                   905.44                   1103.4                   1108.9                   1108.4                   1106.2                   766.32                   891.74                   1092.6                   1099.5                   1099.6                   1097.5                   762.46                   884.13                   1090.1                   1097.6                   1098.0                   1096.0                   761.17                   879.09                   1084.1                   1092.3                   1093.0                   1091.1                   765.84                   891.03                   1093.0                   1099.8                   1099.9                   1097.9                   765.30                   893.08                   1095.3                   1101.7                   1101.7                   1099.6                   742.75                   854.01                   1104.4                   1114.0                   1114.8                   1112.8                   711.71                   765.80                   943.23                   962.20                   971.81                   973.46
20.000                   2.2500                   1.5000                   6000.0                   2500.0                   75.000                   789.34                   917.75                   1095.6                   1101.1                   1100.8                   1098.6                   791.96                   921.26                   1098.6                   1103.9                   1103.5                   1101.3                   800.11                   934.82                   1106.6                   1110.9                   1110.1                   1107.8                   794.09                   924.17                   1099.9                   1105.0                   1104.5                   1102.3                   789.02                   916.99                   1096.2                   1101.8                   1101.5                   1099.3                   787.43                   913.33                   1093.6                   1099.5                   1099.3                   1097.2                   793.68                   924.18                   1100.6                   1105.6                   1105.1                   1102.9                   793.27                   925.82                   1102.1                   1107.0                   1106.4                   1104.1                   764.79                   887.98                   1107.7                   1114.9                   1115.0                   1112.8                   730.32                   789.13                   959.63                   975.77                   983.79                   984.98