% Model:              batchmodel_COIL_N_20_COIL_kr_1.5_COIL_kh_2_FUNZ_freq_6000_FUNZ_I_eff_1000.mph
% Version:            COMSOL 6.0.0.318
% Date:               Feb 9 2022, 01:18
% Table:              Tabella 1 - GRIGLIA_T
% COIL_N                 COIL_kr                  COIL_kh                  FUNZ_freq                FUNZ_I_eff               Time (s)                 Temperatura (degC), Point: (0, 0)Temperatura (degC), Point: (15, 0)Temperatura (degC), Point: (27.483, 0)Temperatura (degC), Point: (28.742, 0)Temperatura (degC), Point: (29.497, 0)Temperatura (degC), Point: (29.99, 0)Temperatura (degC), Point: (0, 62.5)Temperatura (degC), Point: (15, 62.5)Temperatura (degC), Point: (27.483, 62.5)Temperatura (degC), Point: (28.742, 62.5)Temperatura (degC), Point: (29.497, 62.5)Temperatura (degC), Point: (29.99, 62.5)Temperatura (degC), Point: (0, 125)Temperatura (degC), Point: (15, 125)Temperatura (degC), Point: (27.483, 125)Temperatura (degC), Point: (28.742, 125)Temperatura (degC), Point: (29.497, 125)Temperatura (degC), Point: (29.99, 125)Temperatura (degC), Point: (0, 187.5)Temperatura (degC), Point: (15, 187.5)Temperatura (degC), Point: (27.483, 187.5)Temperatura (degC), Point: (28.742, 187.5)Temperatura (degC), Point: (29.497, 187.5)Temperatura (degC), Point: (29.99, 187.5)Temperatura (degC), Point: (0, 250)Temperatura (degC), Point: (15, 250)Temperatura (degC), Point: (27.483, 250)Temperatura (degC), Point: (28.742, 250)Temperatura (degC), Point: (29.497, 250)Temperatura (degC), Point: (29.99, 250)Temperatura (degC), Point: (0, 312.5)Temperatura (degC), Point: (15, 312.5)Temperatura (degC), Point: (27.483, 312.5)Temperatura (degC), Point: (28.742, 312.5)Temperatura (degC), Point: (29.497, 312.5)Temperatura (degC), Point: (29.99, 312.5)Temperatura (degC), Point: (0, 375)Temperatura (degC), Point: (15, 375)Temperatura (degC), Point: (27.483, 375)Temperatura (degC), Point: (28.742, 375)Temperatura (degC), Point: (29.497, 375)Temperatura (degC), Point: (29.99, 375)Temperatura (degC), Point: (0, 437.5)Temperatura (degC), Point: (15, 437.5)Temperatura (degC), Point: (27.483, 437.5)Temperatura (degC), Point: (28.742, 437.5)Temperatura (degC), Point: (29.497, 437.5)Temperatura (degC), Point: (29.99, 437.5)Temperatura (degC), Point: (0, 468.75)Temperatura (degC), Point: (15, 468.75)Temperatura (degC), Point: (27.483, 468.75)Temperatura (degC), Point: (28.742, 468.75)Temperatura (degC), Point: (29.497, 468.75)Temperatura (degC), Point: (29.99, 468.75)Temperatura (degC), Point: (0, 492.19)Temperatura (degC), Point: (15, 492.19)Temperatura (degC), Point: (27.483, 492.19)Temperatura (degC), Point: (28.742, 492.19)Temperatura (degC), Point: (29.497, 492.19)Temperatura (degC), Point: (29.99, 492.19)
20.000                   1.5000                   2.0000                   6000.0                   1000.0                   0.0000                   20.000                   20.000                   20.000                   20.000                   20.006                   20.127                   20.000                   20.000                   20.000                   20.000                   20.007                   20.130                   20.000                   20.000                   20.000                   20.000                   20.007                   20.132                   20.000                   20.000                   20.000                   20.000                   20.007                   20.130                   20.000                   20.000                   20.000                   20.000                   20.007                   20.127                   20.000                   20.000                   20.000                   20.000                   20.007                   20.129                   20.000                   20.000                   20.000                   20.000                   20.007                   20.132                   20.000                   20.000                   20.000                   20.000                   20.007                   20.131                   20.000                   20.000                   20.000                   20.000                   20.007                   20.130                   20.000                   20.000                   20.000                   20.000                   20.004                   20.108
20.000                   1.5000                   2.0000                   6000.0                   1000.0                   5.0000                   22.417                   28.707                   60.595                   66.337                   70.027                   71.787                   22.402                   28.684                   61.002                   66.885                   70.675                   72.475                   22.406                   28.693                   61.208                   67.193                   71.050                   72.876                   22.383                   28.614                   60.795                   66.695                   70.496                   72.302                   22.383                   28.584                   60.249                   65.997                   69.693                   71.456                   22.400                   28.665                   60.925                   66.805                   70.586                   72.382                   22.413                   28.722                   61.304                   67.288                   71.142                   72.966                   22.430                   28.787                   61.554                   67.545                   71.394                   73.212                   22.399                   28.707                   61.257                   67.175                   70.974                   72.776                   22.335                   27.968                   54.588                   59.245                   62.218                   63.667
20.000                   1.5000                   2.0000                   6000.0                   1000.0                   10.000                   33.546                   46.726                   87.567                   93.789                   97.870                   99.720                   33.548                   46.733                   86.393                   92.092                   95.812                   97.597                   33.719                   47.249                   89.473                   95.858                   99.910                   101.78                   33.615                   46.985                   88.396                   94.597                   98.448                   100.31                   33.654                   47.042                   89.106                   95.673                   99.741                   101.53                   33.656                   46.997                   87.494                   93.232                   96.719                   98.413                   33.770                   47.348                   89.858                   96.299                   100.37                   102.28                   33.807                   47.393                   89.476                   95.799                   99.780                   101.64                   33.444                   46.713                   87.749                   93.885                   97.815                   99.726                   32.753                   44.714                   80.058                   85.377                   89.004                   90.872
20.000                   1.5000                   2.0000                   6000.0                   1000.0                   15.000                   50.248                   67.073                   111.61                   118.01                   122.08                   123.93                   50.338                   67.256                   111.53                   117.81                   121.84                   123.70                   50.819                   68.333                   115.12                   121.83                   126.04                   127.95                   50.650                   67.966                   113.90                   120.45                   124.57                   126.46                   50.757                   68.066                   113.91                   120.47                   124.59                   126.43                   50.681                   67.884                   112.98                   119.31                   123.29                   125.13                   50.943                   68.506                   115.43                   122.16                   126.38                   128.31                   50.946                   68.471                   115.02                   121.67                   125.84                   127.74                   49.906                   66.814                   111.81                   118.28                   122.39                   124.29                   48.242                   63.320                   100.73                   105.85                   109.19                   110.80
20.000                   1.5000                   2.0000                   6000.0                   1000.0                   20.000                   70.272                   89.464                   138.04                   144.80                   148.86                   150.68                   70.499                   89.926                   140.44                   147.90                   152.32                   154.17                   71.153                   90.895                   140.66                   147.68                   152.08                   154.03                   70.963                   90.591                   140.36                   147.48                   151.88                   153.71                   71.221                   90.976                   141.26                   148.43                   152.53                   154.42                   71.034                   90.613                   140.81                   148.26                   152.71                   154.56                   71.395                   91.228                   141.11                   148.11                   152.48                   154.41                   71.326                   91.154                   141.18                   148.17                   152.49                   154.38                   69.496                   88.704                   138.13                   145.21                   149.48                   151.23                   66.800                   83.944                   124.95                   130.30                   133.07                   134.25
20.000                   1.5000                   2.0000                   6000.0                   1000.0                   25.000                   90.639                   109.97                   156.91                   163.36                   167.44                   169.27                   91.357                   111.20                   159.05                   165.38                   169.30                   170.98                   92.084                   112.38                   163.01                   170.23                   174.78                   176.79                   91.919                   111.96                   160.31                   166.82                   170.92                   172.57                   92.277                   112.38                   161.16                   167.77                   172.11                   174.11                   91.969                   111.89                   159.89                   166.39                   170.41                   172.14                   92.573                   113.03                   163.37                   170.49                   175.09                   177.11                   92.219                   112.61                   162.79                   169.79                   174.14                   176.03                   88.703                   107.71                   153.58                   159.63                   163.44                   165.03                   84.144                   100.03                   133.61                   137.20                   139.47                   140.46
20.000                   1.5000                   2.0000                   6000.0                   1000.0                   30.000                   111.80                   131.64                   179.80                   186.49                   190.78                   192.68                   112.95                   133.43                   182.21                   188.59                   192.63                   194.38                   113.67                   134.58                   186.84                   194.31                   199.01                   201.06                   113.56                   134.18                   183.84                   190.53                   194.76                   196.50                   114.01                   134.64                   184.34                   191.06                   195.60                   197.64                   113.60                   134.09                   183.05                   189.59                   193.72                   195.51                   114.38                   135.49                   187.46                   194.83                   199.60                   201.67                   113.70                   134.71                   186.37                   193.61                   198.14                   200.08                   108.56                   127.85                   174.39                   180.59                   184.56                   186.26                   102.32                   117.91                   150.91                   154.61                   157.18                   158.33
20.000                   1.5000                   2.0000                   6000.0                   1000.0                   35.000                   134.15                   155.05                   207.65                   215.10                   219.74                   221.74                   135.61                   157.04                   210.93                   218.64                   223.46                   225.51                   136.24                   157.96                   212.91                   220.73                   225.63                   227.70                   136.20                   157.73                   212.06                   219.85                   224.74                   226.82                   136.75                   158.23                   211.85                   219.42                   224.05                   226.04                   136.31                   157.76                   211.74                   219.46                   224.25                   226.30                   137.12                   159.00                   213.98                   221.75                   226.58                   228.64                   136.06                   157.85                   212.72                   220.49                   225.35                   227.41                   129.53                   149.85                   202.18                   209.80                   214.60                   216.66                   122.10                   139.01                   180.21                   186.11                   189.77                   191.43
20.000                   1.5000                   2.0000                   6000.0                   1000.0                   40.000                   157.23                   179.48                   235.51                   243.22                   247.82                   249.84                   158.76                   181.36                   239.48                   248.00                   253.16                   255.35                   159.43                   182.31                   240.47                   248.73                   253.90                   256.06                   159.42                   182.19                   241.25                   249.96                   255.37                   257.65                   160.07                   182.74                   240.27                   248.43                   252.91                   254.87                   159.73                   182.57                   241.93                   250.66                   255.77                   257.96                   160.38                   183.29                   241.10                   249.13                   253.98                   256.05                   158.95                   181.86                   240.30                   248.55                   253.64                   255.79                   151.49                   173.40                   231.17                   239.69                   244.92                   247.20                   143.77                   163.40                   213.89                   221.29                   225.46                   227.32
20.000                   1.5000                   2.0000                   6000.0                   1000.0                   45.000                   181.02                   204.46                   262.40                   269.96                   274.43                   276.49                   182.26                   205.72                   265.38                   273.93                   279.11                   281.29                   183.05                   206.95                   267.89                   276.59                   282.06                   284.28                   183.29                   207.36                   270.81                   280.36                   286.41                   288.86                   183.88                   207.55                   266.54                   274.53                   279.01                   281.00                   183.69                   207.61                   269.10                   278.09                   283.49                   285.79                   184.06                   207.85                   267.46                   275.62                   280.50                   282.61                   182.51                   206.68                   269.05                   277.84                   283.17                   285.39                   174.51                   198.01                   260.51                   269.75                   275.37                   277.81                   166.80                   188.42                   241.70                   248.98                   253.00                   254.77
20.000                   1.5000                   2.0000                   6000.0                   1000.0                   50.000                   205.44                   229.93                   290.75                   298.87                   303.76                   305.88                   206.36                   230.79                   292.88                   301.74                   307.17                   309.38                   207.21                   232.07                   295.51                   304.58                   310.25                   312.50                   207.65                   232.69                   298.12                   307.81                   313.93                   316.34                   208.22                   232.85                   294.39                   302.80                   307.72                   309.80                   208.15                   233.03                   296.60                   305.79                   311.41                   313.71                   208.28                   233.03                   295.38                   304.03                   309.28                   311.45                   206.58                   231.71                   296.35                   305.48                   311.06                   313.31                   198.18                   222.67                   287.08                   296.50                   302.27                   304.67                   190.05                   212.23                   265.58                   272.73                   276.82                   278.58
20.000                   1.5000                   2.0000                   6000.0                   1000.0                   55.000                   230.02                   255.51                   319.47                   328.33                   333.77                   335.96                   230.62                   256.04                   320.78                   330.03                   335.75                   338.01                   231.50                   257.30                   323.17                   332.59                   338.45                   340.73                   232.13                   258.07                   324.87                   334.54                   340.57                   342.91                   232.69                   258.27                   322.62                   331.62                   337.08                   339.26                   232.74                   258.54                   324.17                   333.56                   339.37                   341.65                   232.64                   258.36                   323.68                   332.92                   338.62                   340.87                   230.77                   256.79                   323.29                   332.73                   338.54                   340.81                   222.02                   247.34                   312.96                   322.43                   328.28                   330.61                   213.35                   235.73                   288.49                   295.50                   299.73                   301.49
20.000                   1.5000                   2.0000                   6000.0                   1000.0                   60.000                   254.63                   281.15                   348.34                   357.90                   363.85                   366.10                   254.96                   281.38                   348.70                   358.29                   364.22                   366.50                   255.87                   282.63                   351.08                   360.87                   366.94                   369.25                   256.61                   283.43                   351.76                   361.45                   367.45                   369.72                   257.25                   283.84                   351.28                   360.86                   366.79                   369.04                   257.35                   284.07                   351.94                   361.58                   367.55                   369.82                   257.05                   283.73                   351.99                   361.79                   367.90                   370.21                   254.97                   281.85                   350.30                   360.03                   366.06                   368.36                   245.87                   271.99                   338.91                   348.43                   354.35                   356.60                   236.82                   259.65                   312.96                   320.06                   324.45                   326.21
20.000                   1.5000                   2.0000                   6000.0                   1000.0                   65.000                   279.32                   306.87                   377.48                   387.68                   394.05                   396.33                   279.45                   306.87                   376.66                   386.48                   392.49                   394.79                   280.38                   308.12                   379.38                   389.60                   395.91                   398.26                   281.08                   308.75                   378.86                   388.69                   394.72                   396.96                   281.97                   309.67                   380.65                   390.84                   397.09                   399.38                   281.98                   309.65                   380.05                   390.01                   396.10                   398.36                   281.53                   309.17                   380.33                   390.62                   397.08                   399.45                   279.18                   306.90                   377.42                   387.43                   393.65                   395.97                   269.73                   296.61                   364.96                   374.58                   380.53                   382.68                   260.56                   284.26                   340.10                   347.64                   352.26                   354.02
20.000                   1.5000                   2.0000                   6000.0                   1000.0                   70.000                   304.00                   332.59                   406.61                   417.45                   424.24                   426.57                   303.94                   332.36                   404.62                   414.67                   420.77                   423.07                   304.89                   333.62                   407.69                   418.34                   424.89                   427.28                   305.56                   334.06                   405.95                   415.92                   422.00                   424.20                   306.69                   335.49                   410.03                   420.82                   427.40                   429.71                   306.62                   335.23                   408.16                   418.45                   424.66                   426.90                   306.01                   334.61                   408.66                   419.45                   426.26                   428.69                   303.39                   331.96                   404.53                   414.84                   421.24                   423.58                   293.60                   321.23                   391.01                   400.72                   406.70                   408.77                   284.31                   308.87                   367.24                   375.23                   380.07                   381.82
20.000                   1.5000                   2.0000                   6000.0                   1000.0                   75.000                   327.94                   357.01                   431.74                   442.55                   449.24                   451.52                   327.91                   356.89                   429.69                   439.59                   445.58                   447.81                   328.75                   357.99                   433.05                   443.83                   450.47                   452.86                   329.44                   358.46                   431.05                   440.94                   446.88                   449.01                   330.90                   360.45                   437.02                   448.11                   454.83                   457.08                   330.48                   359.54                   433.11                   443.48                   449.68                   451.84                   329.98                   359.23                   434.68                   445.56                   452.35                   454.76                   326.85                   355.86                   429.19                   439.57                   446.00                   448.35                   316.50                   344.31                   413.94                   423.64                   429.45                   431.36                   307.13                   332.02                   390.82                   398.84                   403.75                   405.46