% Model:              batchmodel_COIL_N_20_COIL_kr_1.5_COIL_kh_1_FUNZ_freq_10000_FUNZ_I_eff_4000.mph
% Version:            COMSOL 6.0.0.318
% Date:               Feb 9 2022, 00:43
% Table:              Tabella 1 - GRIGLIA_T
% COIL_N                 COIL_kr                  COIL_kh                  FUNZ_freq                FUNZ_I_eff               Time (s)                 Temperatura (degC), Point: (0, 0)Temperatura (degC), Point: (15, 0)Temperatura (degC), Point: (28.051, 0)Temperatura (degC), Point: (29.025, 0)Temperatura (degC), Point: (29.61, 0)Temperatura (degC), Point: (29.99, 0)Temperatura (degC), Point: (0, 62.5)Temperatura (degC), Point: (15, 62.5)Temperatura (degC), Point: (28.051, 62.5)Temperatura (degC), Point: (29.025, 62.5)Temperatura (degC), Point: (29.61, 62.5)Temperatura (degC), Point: (29.99, 62.5)Temperatura (degC), Point: (0, 125)Temperatura (degC), Point: (15, 125)Temperatura (degC), Point: (28.051, 125)Temperatura (degC), Point: (29.025, 125)Temperatura (degC), Point: (29.61, 125)Temperatura (degC), Point: (29.99, 125)Temperatura (degC), Point: (0, 187.5)Temperatura (degC), Point: (15, 187.5)Temperatura (degC), Point: (28.051, 187.5)Temperatura (degC), Point: (29.025, 187.5)Temperatura (degC), Point: (29.61, 187.5)Temperatura (degC), Point: (29.99, 187.5)Temperatura (degC), Point: (0, 250)Temperatura (degC), Point: (15, 250)Temperatura (degC), Point: (28.051, 250)Temperatura (degC), Point: (29.025, 250)Temperatura (degC), Point: (29.61, 250)Temperatura (degC), Point: (29.99, 250)Temperatura (degC), Point: (0, 312.5)Temperatura (degC), Point: (15, 312.5)Temperatura (degC), Point: (28.051, 312.5)Temperatura (degC), Point: (29.025, 312.5)Temperatura (degC), Point: (29.61, 312.5)Temperatura (degC), Point: (29.99, 312.5)Temperatura (degC), Point: (0, 375)Temperatura (degC), Point: (15, 375)Temperatura (degC), Point: (28.051, 375)Temperatura (degC), Point: (29.025, 375)Temperatura (degC), Point: (29.61, 375)Temperatura (degC), Point: (29.99, 375)Temperatura (degC), Point: (0, 437.5)Temperatura (degC), Point: (15, 437.5)Temperatura (degC), Point: (28.051, 437.5)Temperatura (degC), Point: (29.025, 437.5)Temperatura (degC), Point: (29.61, 437.5)Temperatura (degC), Point: (29.99, 437.5)Temperatura (degC), Point: (0, 468.75)Temperatura (degC), Point: (15, 468.75)Temperatura (degC), Point: (28.051, 468.75)Temperatura (degC), Point: (29.025, 468.75)Temperatura (degC), Point: (29.61, 468.75)Temperatura (degC), Point: (29.99, 468.75)Temperatura (degC), Point: (0, 492.19)Temperatura (degC), Point: (15, 492.19)Temperatura (degC), Point: (28.051, 492.19)Temperatura (degC), Point: (29.025, 492.19)Temperatura (degC), Point: (29.61, 492.19)Temperatura (degC), Point: (29.99, 492.19)
20.000                   1.5000                   1.0000                   10000                    4000.0                   0.0000                   20.000                   20.000                   20.000                   20.001                   20.271                   20.899                   20.000                   20.000                   20.000                   20.001                   20.333                   21.020                   20.000                   20.000                   20.000                   20.004                   20.443                   21.223                   20.000                   20.000                   20.000                   20.003                   20.421                   21.182                   20.000                   20.000                   20.000                   20.001                   20.303                   20.964                   20.000                   20.000                   20.000                   20.001                   20.275                   20.908                   20.000                   20.000                   20.000                   20.002                   20.368                   21.083                   20.000                   20.000                   20.000                   20.004                   20.453                   21.242                   20.000                   20.000                   20.000                   20.001                   20.280                   20.919                   20.000                   20.000                   20.000                   20.004                   20.455                   21.247
20.000                   1.5000                   1.0000                   10000                    4000.0                   5.0000                   38.771                   115.45                   640.39                   743.29                   799.66                   814.60                   39.325                   119.82                   681.34                   801.12                   866.62                   882.90                   40.586                   127.36                   819.27                   992.00                   1060.1                   1073.8                   40.375                   126.05                   767.00                   926.88                   998.72                   1014.4                   39.131                   118.67                   665.56                   777.30                   839.15                   854.90                   38.724                   116.33                   647.89                   752.53                   810.15                   825.31                   39.823                   122.82                   713.09                   848.29                   918.11                   934.65                   40.632                   127.72                   851.69                   1025.4                   1091.0                   1103.9                   38.945                   117.18                   653.01                   760.10                   819.23                   834.60                   49.356                   143.25                   741.85                   883.58                   952.33                   967.98
20.000                   1.5000                   1.0000                   10000                    4000.0                   10.000                   152.90                   295.95                   841.78                   926.13                   965.04                   973.85                   155.75                   306.32                   888.95                   964.99                   997.28                   1004.1                   161.70                   332.85                   1238.9                   1274.9                   1282.5                   1281.6                   160.59                   326.75                   1183.1                   1227.5                   1237.7                   1237.5                   154.92                   302.35                   854.50                   932.57                   968.15                   976.12                   153.41                   297.52                   845.29                   928.77                   967.18                   975.85                   158.13                   314.59                   1005.4                   1079.1                   1100.7                   1103.4                   162.18                   335.94                   1260.6                   1293.7                   1300.3                   1299.2                   154.70                   299.78                   838.00                   916.01                   952.25                   960.49                   176.36                   343.09                   1158.4                   1203.6                   1214.0                   1213.8
20.000                   1.5000                   1.0000                   10000                    4000.0                   15.000                   289.33                   435.90                   900.30                   952.49                   976.85                   982.24                   295.58                   456.11                   1089.7                   1130.3                   1140.5                   1140.8                   307.07                   494.55                   1219.9                   1238.5                   1241.6                   1240.0                   304.81                   486.59                   1206.9                   1227.8                   1231.5                   1230.1                   293.37                   447.80                   999.66                   1050.9                   1067.6                   1069.9                   290.27                   438.14                   909.15                   959.72                   983.06                   988.18                   299.88                   468.87                   1157.1                   1186.1                   1192.3                   1191.5                   308.08                   498.32                   1225.7                   1243.5                   1246.3                   1244.7                   292.67                   442.51                   923.46                   973.01                   994.84                   999.43                   320.28                   504.28                   1232.3                   1251.9                   1255.2                   1253.6
20.000                   1.5000                   1.0000                   10000                    4000.0                   20.000                   405.67                   544.15                   951.34                   982.83                   996.97                   999.87                   414.26                   570.12                   1149.1                   1169.6                   1173.5                   1172.4                   428.56                   608.50                   1211.6                   1224.4                   1226.0                   1224.2                   425.76                   601.03                   1204.2                   1217.7                   1219.5                   1217.8                   411.04                   559.67                   1100.5                   1127.3                   1133.5                   1133.0                   406.83                   546.89                   980.72                   1014.9                   1028.1                   1030.1                   419.53                   583.62                   1179.2                   1195.6                   1198.3                   1196.8                   429.78                   611.84                   1215.3                   1227.9                   1229.4                   1227.6                   409.85                   552.32                   1017.2                   1051.0                   1061.9                   1063.0                   443.47                   629.98                   1273.6                   1286.1                   1287.4                   1285.3
20.000                   1.5000                   1.0000                   10000                    4000.0                   25.000                   502.18                   631.67                   1046.6                   1069.7                   1076.1                   1076.0                   511.85                   658.70                   1160.4                   1173.0                   1174.7                   1173.1                   527.04                   694.73                   1214.7                   1224.5                   1225.3                   1223.3                   524.07                   688.08                   1206.2                   1216.2                   1217.0                   1215.2                   508.13                   647.96                   1131.3                   1146.3                   1148.9                   1147.6                   503.42                   634.58                   1069.5                   1091.7                   1096.9                   1096.3                   517.40                   671.68                   1182.4                   1193.4                   1194.6                   1192.8                   528.34                   698.07                   1219.0                   1228.7                   1229.4                   1227.5                   506.90                   640.38                   1090.9                   1110.4                   1114.6                   1113.7                   546.68                   734.96                   1312.9                   1322.2                   1322.5                   1320.1
