% Model:              batchmodel_BILLETTA_r_0.0257427_COIL_kr_1.6756_COIL_kw_5.3284_FUNZ_freq_6066_FUNZ_I_eff_85.0125.mph
% Version:            COMSOL 5.6.0.280
% Date:               Jan 27 2022, 13:09
% Table:              Tabella delle sonde 1 - 
% Tempo (s)                                       Temperatura (degC), Punto: (0, 0.5)               Temperatura (degC), Punto: (0.5*BILLETTA_r, 0.5)  Temperatura (degC), Punto: (BILLETTA_r-10*FUNZ_depth_billetta, 0.5)Temperatura (degC), Punto: (BILLETTA_r-5*FUNZ_depth_billetta, 0.5)Temperatura (degC), Punto: (BILLETTA_r-2*FUNZ_depth_billetta, 0.5)Temperatura (degC), Punto: (BILLETTA_r-FUNZ_depth_billetta, 0.5)Temperatura (degC), Punto: (BILLETTA_r-0.01[mm], 0.5)
0                                                 20                                                19.999999999999943                                20.000000000072816                                20.00038364133303                                 20.126043667312615                                20.352757847732846                                20.530916698176384
5                                                 55.32698315643569                                 157.9871013527274                                 630.3939197750366                                 763.2958358862703                                 832.1223994070982                                 844.7143026425321                                 849.044825542394
10                                                229.66659688447692                                394.143021331167                                  1027.2970310473347                                1114.0808785580816                                1135.2847387037323                                1137.3846419580254                                1137.0663249220138
15                                                407.71938435291304                                572.9176534996983                                 1109.576892612988                                 1144.0075218413463                                1150.9441780585353                                1150.994483909301                                 1149.966548994791
20                                                544.7092959132675                                 694.6600587276239                                 1141.6042446354968                                1159.9630403414772                                1162.6541530372278                                1162.0950401138102                                1160.8420242777775
25                                                647.0470473266848                                 791.5784538584008                                 1166.014359901269                                 1176.8834879585752                                1177.5149001087284                                1176.638947355515                                 1175.2483780476891
30                                                717.1710627409258                                 890.327371929796                                  1189.1391335920825                                1196.4166271019712                                1196.0046771959705                                1194.9452252958367                                1193.4517123095384
35                                                769.4243373488679                                 981.0437962466277                                 1215.109487171093                                 1220.4770420647524                                1219.4400778193462                                1218.2470018944023                                1216.6579356872885
40                                                851.7775104022206                                 1059.7172420195898                                1246.5195614059044                                1250.7088359202662                                1249.2050005987899                                1247.8887571270716                                1246.1955910582656
45                                                966.8518385833237                                 1128.880066685254                                 1284.0950988900563                                1287.3099411192984                                1285.3318785737379                                1283.874339323408                                 1282.053518502204
50                                                1072.4836274745294                                1192.584658726565                                 1325.6135917008432                                1327.7031054853942                                1325.1610542587628                                1323.537035467485                                 1321.567728884896
55                                                1157.831918539156                                 1252.338826815458                                 1365.4781551360793                                1366.2707466107818                                1363.130165715017                                 1361.3367515629748                                1359.2187848863937
60                                                1227.7239178799878                                1304.1284876731925                                1393.457661956726                                 1392.991615958681                                 1389.374139576797                                 1387.4568214767341                                1385.231990814461
61.81556546142192                                 1249.1937728878424                                1321.0347563450373                                1400.8621430933167                                1399.9447720732037                                1396.1814004067278                                1394.2294703895172                                1391.9754171613936
