% Model:              batchmodel_BILLETTA_r_0.0257427_COIL_kr_2.7711_COIL_kw_5.3284_FUNZ_freq_6066_FUNZ_I_eff_162.3068.mph
% Version:            COMSOL 5.6.0.280
% Date:               Jan 27 2022, 15:50
% Table:              Tabella delle sonde 1 - 
% Tempo (s)                                       Temperatura (degC), Punto: (0, 0.5)               Temperatura (degC), Punto: (0.5*BILLETTA_r, 0.5)  Temperatura (degC), Punto: (BILLETTA_r-10*FUNZ_depth_billetta, 0.5)Temperatura (degC), Punto: (BILLETTA_r-5*FUNZ_depth_billetta, 0.5)Temperatura (degC), Punto: (BILLETTA_r-2*FUNZ_depth_billetta, 0.5)Temperatura (degC), Punto: (BILLETTA_r-FUNZ_depth_billetta, 0.5)Temperatura (degC), Punto: (BILLETTA_r-0.01[mm], 0.5)
0                                                 19.999999999999943                                19.999999999999943                                20.000000027542455                                20.0685447515134                                  20.76325533606979                                 21.201961924221337                                21.58927874786241
5                                                 99.89960573232025                                 298.8750160596459                                 1303.4260309231258                                1370.1399549911066                                1384.2481413313399                                1384.8368842156578                                1383.4517754329308
5.8236339811611355                                140.46515883402395                                359.59091764904326                                1335.5794655980662                                1386.175781518904                                 1396.055334082827                                 1396.0455778832043                                1394.435980018754
