% Model:              batchmodel_BILLETTA_r_0.0257427_COIL_kr_2.7711_COIL_kw_5.8583_FUNZ_freq_6066_FUNZ_I_eff_85.0125.mph
% Version:            COMSOL 5.6.0.280
% Date:               Jan 27 2022, 16:00
% Table:              Tabella delle sonde 1 - 
% Tempo (s)                                       Temperatura (degC), Punto: (0, 0.5)               Temperatura (degC), Punto: (0.5*BILLETTA_r, 0.5)  Temperatura (degC), Punto: (BILLETTA_r-10*FUNZ_depth_billetta, 0.5)Temperatura (degC), Punto: (BILLETTA_r-5*FUNZ_depth_billetta, 0.5)Temperatura (degC), Punto: (BILLETTA_r-2*FUNZ_depth_billetta, 0.5)Temperatura (degC), Punto: (BILLETTA_r-FUNZ_depth_billetta, 0.5)Temperatura (degC), Punto: (BILLETTA_r-0.01[mm], 0.5)
0                                                 20                                                20                                                20.000000000168654                                20.000968794806226                                20.259953455738753                                20.518787734884768                                20.76616995576603
5                                                 61.047651508614194                                162.30605382213685                                639.2721255130309                                 779.7924193298871                                 858.7758793892793                                 873.3936886776886                                 878.2915393521124
10                                                233.05391802527623                                398.1491706383447                                 1029.9003976776717                                1115.1318496239928                                1135.6063376915795                                1137.5610501961173                                1137.189296083855
15                                                410.76678048394103                                575.5011040051107                                 1109.9268786230414                                1144.0123303939276                                1150.8701258212377                                1150.910532767015                                 1149.8795914660514
20                                                546.9850777704838                                 696.3024715066783                                 1142.1018607877659                                1160.3317571847747                                1162.985141256926                                 1162.4199997507562                                1161.1642573365848
25                                                648.8791888317288                                 793.9638641696714                                 1166.6162709508985                                1177.4162218192027                                1178.0228833679053                                1177.1421868130888                                1175.7488718780473
30                                                718.7008783677311                                 894.4010345788114                                 1190.1075005889652                                1197.3033717222947                                1196.8639108838897                                1195.7985395338856                                1194.3009626389676
35                                                772.3485769478513                                 984.9802250585775                                 1216.481338308768                                 1221.7973981044188                                1220.7405930821214                                1219.5425216691815                                1217.9494335683817
40                                                859.4238086273737                                 1063.4375285837518                                1248.2465056303622                                1252.3978059652322                                1250.8739863317123                                1249.551547667812                                 1247.8526549179687
45                                                972.0953458036964                                 1132.1128064306758                                1286.0091916814413                                1289.1711252766381                                1287.167356191997                                 1285.7022971393417                                1283.8747927954428
50                                                1071.9336225517718                                1193.6726139205002                                1326.0358877466142                                1328.0537857434424                                1325.4941217717464                                1323.867094627411                                 1321.8957015704882
55                                                1144.0812570852572                                1246.3169364608452                                1359.2811203730694                                1360.0121495508884                                1356.919488287941                                 1355.1488028011272                                1353.0530430790755
58.833819691613414                                1199.401461480818                                 1286.6827045422096                                1384.7723658721834                                1384.516670446235                                 1381.0153260811326                                1379.1344885578665                                1376.9433689618645
