% Model:              batchmodel_BILLETTA_r_0.0257427_COIL_kr_1.4848_COIL_kw_4.5299_FUNZ_freq_8940.8_FUNZ_I_eff_127.5152.mph
% Version:            COMSOL 5.6.0.280
% Date:               Jan 27 2022, 12:09
% Table:              Tabella delle sonde 1 - 
% Tempo (s)                                       Temperatura (degC), Punto: (0, 0.5)               Temperatura (degC), Punto: (0.5*BILLETTA_r, 0.5)  Temperatura (degC), Punto: (BILLETTA_r-10*FUNZ_depth_billetta, 0.5)Temperatura (degC), Punto: (BILLETTA_r-5*FUNZ_depth_billetta, 0.5)Temperatura (degC), Punto: (BILLETTA_r-2*FUNZ_depth_billetta, 0.5)Temperatura (degC), Punto: (BILLETTA_r-FUNZ_depth_billetta, 0.5)Temperatura (degC), Punto: (BILLETTA_r-0.01[mm], 0.5)
0                                                 20                                                19.999999999999943                                20.000000012486737                                20.033209244448074                                20.77166016596908                                 21.295925667400468                                21.734611071164522
5                                                 93.87895887369211                                 269.43668402143715                                1203.3436800602558                                1264.2885678935168                                1278.1412718487886                                1279.1237974328105                                1278.3691978545012
10                                                329.99802285256                                   549.3390275389285                                 1301.226659148395                                 1322.7083430771422                                1326.374543907245                                 1325.886146313388                                 1324.5620540076543
15                                                523.8724958756366                                 746.7648181489109                                 1375.9699841898405                                1390.1355672341197                                1391.7194244777847                                1390.8428767014038                                1389.262901514779
15.630220977656876                                544.3951155426814                                 769.5282290965739                                 1384.508514900113                                 1397.790573060081                                 1399.113955226488                                 1398.1903474226924                                1396.579961323639
