% Model:              batchmodel_BILLETTA_r_0.0257427_COIL_kr_1.9397_COIL_kw_3.7744_FUNZ_freq_6066_FUNZ_I_eff_162.3068.mph
% Version:            COMSOL 5.6.0.280
% Date:               Jan 27 2022, 13:42
% Table:              Tabella delle sonde 1 - 
% Tempo (s)                                       Temperatura (degC), Punto: (0, 0.5)               Temperatura (degC), Punto: (0.5*BILLETTA_r, 0.5)  Temperatura (degC), Punto: (BILLETTA_r-10*FUNZ_depth_billetta, 0.5)Temperatura (degC), Punto: (BILLETTA_r-5*FUNZ_depth_billetta, 0.5)Temperatura (degC), Punto: (BILLETTA_r-2*FUNZ_depth_billetta, 0.5)Temperatura (degC), Punto: (BILLETTA_r-FUNZ_depth_billetta, 0.5)Temperatura (degC), Punto: (BILLETTA_r-0.01[mm], 0.5)
0                                                 20                                                20                                                20.000000027542512                                20.068544786855114                                20.763255475585993                                21.2019621065636                                  21.589278964519565
5                                                 108.6975784468163                                 298.9420148812785                                 1289.492656751238                                 1358.9414049475981                                1373.8799777072923                                1374.6039528188649                                1373.2885236812053
6.058113295401313                                 159.38874880036423                                374.937258785828                                  1333.616632785972                                 1382.7888930637432                                1392.29473507093                                  1392.239497204168                                 1390.62503626441
