% Model:              batchmodel_BILLETTA_r_0.0257427_COIL_kr_1.6756_COIL_kw_5.8583_FUNZ_freq_6066_FUNZ_I_eff_162.3068.mph
% Version:            COMSOL 5.6.0.280
% Date:               Jan 27 2022, 13:21
% Table:              Tabella delle sonde 1 - 
% Tempo (s)                                       Temperatura (degC), Punto: (0, 0.5)               Temperatura (degC), Punto: (0.5*BILLETTA_r, 0.5)  Temperatura (degC), Punto: (BILLETTA_r-10*FUNZ_depth_billetta, 0.5)Temperatura (degC), Punto: (BILLETTA_r-5*FUNZ_depth_billetta, 0.5)Temperatura (degC), Punto: (BILLETTA_r-2*FUNZ_depth_billetta, 0.5)Temperatura (degC), Punto: (BILLETTA_r-FUNZ_depth_billetta, 0.5)Temperatura (degC), Punto: (BILLETTA_r-0.01[mm], 0.5)
0                                                 19.999999999999943                                19.999999999999943                                20.000000027542512                                20.068544816345423                                20.763255581028886                                21.201962246574624                                21.589279130351542
5                                                 108.55997167409913                                297.9399716196283                                 1287.4941555523583                                1357.8063602401453                                1373.0458796676521                                1373.8150649514737                                1372.5163800435398
6.500345145647788                                 181.66189711952427                                404.38059392535604                                1345.2343463971974                                1388.6631302765977                                1396.7259641350347                                1396.4681010189215                                1394.776759389108
