% Model:              batchmodel_BILLETTA_r_0.0257427_COIL_kr_2.4069_COIL_kw_5.3284_FUNZ_freq_2540.9_FUNZ_I_eff_162.3068.mph
% Version:            COMSOL 5.6.0.280
% Date:               Jan 27 2022, 14:52
% Table:              Tabella delle sonde 1 - 
% Tempo (s)                                       Temperatura (degC), Punto: (0, 0.5)               Temperatura (degC), Punto: (0.5*BILLETTA_r, 0.5)  Temperatura (degC), Punto: (BILLETTA_r-10*FUNZ_depth_billetta, 0.5)Temperatura (degC), Punto: (BILLETTA_r-5*FUNZ_depth_billetta, 0.5)Temperatura (degC), Punto: (BILLETTA_r-2*FUNZ_depth_billetta, 0.5)Temperatura (degC), Punto: (BILLETTA_r-FUNZ_depth_billetta, 0.5)Temperatura (degC), Punto: (BILLETTA_r-0.01[mm], 0.5)
0                                                 20                                                20                                                20.00000000644036                                 20.028414669694882                                20.31705810893658                                 20.49896052357235                                 20.681885653427003
5                                                 79.48376938681366                                 238.0527072675265                                 875.6064269587922                                 1145.300603304976                                 1214.278822810928                                 1222.0195276396094                                1222.6421505658245
10                                                312.6925153344266                                 545.5220664093691                                 1269.9054533785056                                1335.1500285560364                                1346.712668408703                                 1346.2498606126792                                1343.7441637721777
15                                                523.9365791078997                                 799.2961827385369                                 1349.5389264007804                                1374.9565543235512                                1376.4092891474202                                1374.496248848397                                 1371.4098997157157
18.646759901910716                                647.2035123489576                                 1019.1138371128567                                1377.4410720704454                                1392.4076076214296                                1391.4058390728155                                1389.1394584464197                                1385.8837640253428
