% Model:              batchmodel_BILLETTA_r_0.0257427_COIL_kr_1.6756_COIL_kw_3.2356_FUNZ_freq_2540.9_FUNZ_I_eff_61.5962.mph
% Version:            COMSOL 5.6.0.280
% Date:               Jan 27 2022, 12:31
% Table:              Tabella delle sonde 1 - 
% Tempo (s)                                       Temperatura (degC), Punto: (0, 0.5)               Temperatura (degC), Punto: (0.5*BILLETTA_r, 0.5)  Temperatura (degC), Punto: (BILLETTA_r-10*FUNZ_depth_billetta, 0.5)Temperatura (degC), Punto: (BILLETTA_r-5*FUNZ_depth_billetta, 0.5)Temperatura (degC), Punto: (BILLETTA_r-2*FUNZ_depth_billetta, 0.5)Temperatura (degC), Punto: (BILLETTA_r-FUNZ_depth_billetta, 0.5)Temperatura (degC), Punto: (BILLETTA_r-0.01[mm], 0.5)
0                                                 20                                                19.999999999999943                                20.00000000000273                                 20.00000830559327                                 20.028195310886247                                20.09370400248929                                 20.16582258375911
5                                                 34.54363030587473                                 70.82339624754894                                 183.54605486411873                                224.9469438859212                                 251.31868282391792                                257.46077797208727                                259.9366056816465
10                                                108.19959532470722                                177.87222744022472                                339.0817232121601                                 396.22816640344706                                429.8481566789568                                 437.22923027616685                                440.04880396412966
15                                                212.86779599845914                                296.61277846975406                                500.55018399424955                                569.7805681128499                                 604.9776916326973                                 612.6199135223104                                 615.4173190858286
20                                                317.6252895782594                                 413.31189403345047                                644.3363462133302                                 728.632687195795                                  775.5232151971087                                 784.3225558788912                                 787.1004962968638
25                                                416.05691832988657                                517.6004409328832                                 772.8029786147421                                 884.3869693280152                                 937.7684724466329                                 946.7122248364318                                 949.0292336832969
30                                                503.50605558083237                                607.5217792090465                                 903.3905460108737                                 1008.6346277472065                                1048.034953280417                                 1053.4840767124356                                1054.1230633724972
35                                                581.427977199617                                  683.1921799566692                                 986.4883172783947                                 1058.970962916765                                 1078.7402721707326                                1080.4828529622846                                1079.6814607255706
40                                                648.6025330273669                                 745.5854071754718                                 1033.1614336663115                                1077.7680563381186                                1087.6653703754882                                1087.9044685468466                                1086.5665098714212
45                                                701.1657320827001                                 804.8241464709002                                 1060.584921767103                                 1088.7749099052667                                1093.8487190053938                                1093.3721296226763                                1091.7745414665624
50                                                739.9142434845106                                 866.4747003366791                                 1078.5597410237915                                1097.3104826919744                                1099.6168911059294                                1098.7164285512426                                1096.9567223153658
55                                                778.5106352482134                                 921.6077031551075                                 1091.8694182519757                                1104.353441569845                                 1104.8336562813206                                1103.650444433229                                 1101.7782174993745
60                                                838.5225447902955                                 967.0177828953407                                 1101.736696917479                                 1110.396029799802                                 1109.7329256607                                   1108.365880049481                                 1106.4155751380058
65                                                899.509279754794                                  1007.6198848008293                                1111.242579431958                                 1116.6213001468318                                1114.9537853746                                   1113.4216561550966                                1111.398436264702
70                                                957.2127252991003                                 1043.4131768459524                                1120.3957279869355                                1123.086233988864                                 1120.5727116545186                                1118.8970797806055                                1116.8067562698325
75                                                1004.9404542986555                                1072.6021659582416                                1129.2949684429009                                1129.9651705038773                                1126.7868705881847                                1124.9921494312412                                1122.840742707896
80                                                1047.4393208692873                                1098.7304523742437                                1138.3703890977827                                1137.2980874191035                                1133.5298575820657                                1131.625477658963                                 1129.4142494679709
85                                                1082.9333061611615                                1121.0285404884903                                1147.7672564485033                                1145.298947098725                                 1141.0337405190216                                1139.0310715523487                                1136.7610552450938
90                                                1111.9980328207835                                1140.4593456287316                                1157.6641608312375                                1154.0562856347947                                1149.3618577299967                                1147.268301945484                                 1144.938869396642
95                                                1134.6833638330304                                1156.8844948258184                                1168.0064258246612                                1163.5286969517829                                1158.4766287015304                                1156.3002825131393                                1153.911201125958
100                                               1154.4745230855215                                1171.8298091755714                                1178.1432152233738                                1172.9415592187584                                1167.5788505083838                                1165.3268404874457                                1162.8802147516813
105                                               1172.1231959058437                                1185.624374374414                                 1187.934158123801                                 1182.1278037240636                                1176.4961528432154                                1174.1753963875603                                1171.6738348505846
110                                               1186.4282529892366                                1197.7423394322514                                1197.6035553066426                                1191.3543920779834                                1185.5039688158922                                1183.1217175648367                                1180.5670233327678
115                                               1197.9928792498836                                1208.433454921882                                 1207.0690576280485                                1200.5085832461718                                1194.4816448330025                                1192.044475410246                                 1189.438863658599
120                                               1209.9549868302224                                1218.9969830372734                                1215.9022651523924                                1209.003871412076                                 1202.801512053868                                 1200.3124894904845                                1197.6603190783026
125                                               1220.3627443328623                                1228.6247619725768                                1224.369649471943                                 1217.205072547442                                 1210.8539905077273                                1208.3183641014098                                1205.622660482391
130                                               1229.216151757803                                 1237.316791727792                                 1232.4712105867002                                1225.1121866522708                                1218.6390801945809                                1216.0620992430204                                1213.3258878708657
135                                               1237.7977127400013                                1245.6474935348683                                1240.1488024005307                                1232.5962047388348                                1226.0045769946096                                1223.3881370099984                                1220.6136913838932
140                                               1246.1358895732833                                1253.6296153856533                                1247.4011344911496                                1239.654263741787                                 1232.9471030784944                                1230.293025143273                                 1227.4826020744572
145                                               1253.8020823005368                                1261.0711914184785                                1254.2476387054758                                1246.3294771815108                                1239.5175235490306                                1236.8287495473905                                1233.9848571428229
150                                               1260.9034852896775                                1268.030614678628                                 1260.704752256654                                 1252.6329367809421                                1245.7249072197892                                1243.0039398215654                                1240.128784535771
155                                               1267.9155915524989                                1274.7669051641606                                1266.8453873707276                                1258.613843228959                                 1251.609481553859                                 1248.8568751608805                                1245.9513253778582
160                                               1274.5372435177196                                1281.1160103409825                                1272.6233644648905                                1264.241034847892                                 1257.1457681429742                                1254.3633111092954                                1251.4290826914716
165                                               1280.7684411853393                                1287.0779302090928                                1278.0386835391423                                1269.5145116377412                                1262.333766987133                                 1259.5232476668102                                1256.5620564766118
170                                               1286.8412943178741                                1292.8383151263693                                1283.231105293236                                 1274.5658058230088                                1267.3011755458201                                1264.4632829367442                                1261.475863086067
175                                               1292.7472583108188                                1298.390330787924                                 1288.1954847479506                                1279.3900753374846                                1272.0432929211665                                1269.1787564915817                                1266.1658782332825
180                                               1298.4166224270984                                1303.6782198522933                                1292.8898468424886                                1283.9478164213124                                1276.5217670683191                                1273.6316464618453                                1270.5943749030457
185                                               1303.8493866667127                                1308.7019823194769                                1297.3141915768483                                1288.2390290744906                                1280.736597987277                                 1277.8219528475352                                1274.7613530953568
190                                               1309.0455510296629                                1313.4616181894753                                1301.468518951031                                 1292.2637132970199                                1284.6877856780407                                1281.7496756486516                                1278.666812810215
195                                               1314.0715206422105                                1318.0773595868395                                1305.5091121704318                                1296.1794681786764                                1288.5324652372346                                1285.5715920570328                                1282.4670924351872
200                                               1318.9148603809604                                1322.5266916638589                                1309.4067054079496                                1299.956781477878                                 1292.2412113113287                                1289.2583437409353                                1286.1329158096746
205                                               1323.5539821793773                                1326.770527391408                                 1313.1104915583778                                1303.5444183001637                                1295.7629398483587                                1292.7589630019465                                1289.6134578889482
210                                               1327.9888860374622                                1330.8088667694865                                1316.6204706217172                                1306.9423786455332                                1299.0976508483245                                1296.0734498400666                                1292.9087186730076
215                                               1332.2195719552146                                1334.6417097980939                                1319.9366425979674                                1310.1506625139868                                1302.2453443112263                                1299.2018042552959                                1296.018698161853
220                                               1336.2578714659803                                1338.3394557673596                                1323.17082618409                                  1313.284230398594                                 1305.3214547732973                                1302.259410512378                                 1299.0586424680027
225                                               1340.1015689791052                                1341.8889216007792                                1326.3020820434258                                1316.3215546252513                                1308.3043657904013                                1305.22466158109                                  1302.006970431827
230                                               1343.746818105862                                 1345.267220743583                                 1329.2940583217483                                1319.2252619531728                                1311.1565500120332                                1308.0600464540066                                1304.8262159586907
235                                               1347.1936188462514                                1348.4743531957706                                1332.1467550190582                                1321.9953523823588                                1313.8780074381934                                1310.7655651311302                                1307.516379048594
240                                               1350.4419712002732                                1351.510318957342                                 1334.8601721353552                                1324.6318259128097                                1316.4687380688824                                1313.3412176124584                                1310.0774597015356
245                                               1353.532783555111                                 1354.4198492405762                                1337.479605475236                                 1327.1791717891647                                1318.9725724978844                                1315.8306132865873                                1312.5528589793207
250                                               1356.4583953449146                                1357.1945676116698                                1339.9965728784937                                1329.6290588888432                                1321.3813029425642                                1318.2255857940963                                1314.9344495341152
