% Model:              batchmodel_BILLETTA_r_0.0257427_COIL_kr_1.6756_COIL_kw_5.3284_FUNZ_freq_4639.7_FUNZ_I_eff_127.5152.mph
% Version:            COMSOL 5.6.0.280
% Date:               Jan 27 2022, 13:07
% Table:              Tabella delle sonde 1 - 
% Tempo (s)                                       Temperatura (degC), Punto: (0, 0.5)               Temperatura (degC), Punto: (0.5*BILLETTA_r, 0.5)  Temperatura (degC), Punto: (BILLETTA_r-10*FUNZ_depth_billetta, 0.5)Temperatura (degC), Punto: (BILLETTA_r-5*FUNZ_depth_billetta, 0.5)Temperatura (degC), Punto: (BILLETTA_r-2*FUNZ_depth_billetta, 0.5)Temperatura (degC), Punto: (BILLETTA_r-FUNZ_depth_billetta, 0.5)Temperatura (degC), Punto: (BILLETTA_r-0.01[mm], 0.5)
0                                                 20                                                20                                                20.000000001858723                                20.015105706528004                                20.39606720694877                                 20.670477689325708                                20.92932064046977
5                                                 83.45311233844518                                 228.68154302698593                                966.4111947870043                                 1148.8273037435788                                1194.0056957488187                                1199.1189557505609                                1199.474119400024
10                                                298.3651497312661                                 500.15869351105516                                1211.1804814935103                                1257.4552826482627                                1266.2647536784448                                1266.1694068559195                                1264.6385217746374
15                                                488.8986491167917                                 695.0845814049449                                 1269.2117202643244                                1289.6191046256986                                1291.844310282907                                 1290.801931281288                                 1288.8983007383208
20                                                633.905690806306                                  877.7355840761157                                 1312.6765536182756                                1325.53158295613                                  1325.7761604326297                                1324.3939306167508                                1322.2895282109416
25                                                736.1464591919499                                 1062.3236008944073                                1366.6126477616672                                1376.5625705356074                                1375.8387839389961                                1374.2111315760721                                1371.886787749444
27.58931926529552                                 787.6083321118323                                 1135.074087032996                                 1391.4178418907413                                1399.1789125951668                                1397.823676585106                                 1396.065775356712                                 1393.6364981480674
