% Model:              batchmodel_BILLETTA_r_0.0257427_COIL_kr_2.4069_COIL_kw_4.5299_FUNZ_freq_6066_FUNZ_I_eff_61.5962.mph
% Version:            COMSOL 5.6.0.280
% Date:               Jan 27 2022, 14:45
% Table:              Tabella delle sonde 1 - 
% Tempo (s)                                       Temperatura (degC), Punto: (0, 0.5)               Temperatura (degC), Punto: (0.5*BILLETTA_r, 0.5)  Temperatura (degC), Punto: (BILLETTA_r-10*FUNZ_depth_billetta, 0.5)Temperatura (degC), Punto: (BILLETTA_r-5*FUNZ_depth_billetta, 0.5)Temperatura (degC), Punto: (BILLETTA_r-2*FUNZ_depth_billetta, 0.5)Temperatura (degC), Punto: (BILLETTA_r-FUNZ_depth_billetta, 0.5)Temperatura (degC), Punto: (BILLETTA_r-0.01[mm], 0.5)
0                                                 19.999999999999943                                19.999999999999943                                20.00000000002342                                 20.000106911051034                                20.14156543492254                                 20.332656168966537                                20.529959119196292
5                                                 42.55607051363495                                 105.66736936964526                                358.82987768490284                                419.0344835366685                                 454.3944540711036                                 461.89175253914414                                464.7492964402612
10                                                161.7047811929433                                 272.06592953609777                                633.6297555264013                                 720.727526190122                                  766.9958587565258                                 775.9503112113645                                 779.0238875394426
15                                                304.48904525799503                                432.06136023574675                                891.6217661464892                                 1004.9160939347538                                1048.9982889654839                                1055.5953019795547                                1057.100167197062
20                                                431.5769429440163                                 561.7171677342363                                 1009.9844371021987                                1071.0642377333747                                1087.5415148781658                                1089.18426317683                                  1088.8364465520094
25                                                538.8439091206367                                 661.4305571922758                                 1058.5933830213107                                1091.6965537208403                                1099.3913805306852                                1099.7190635969896                                1098.904151443969
30                                                625.4994030384225                                 736.4598184167278                                 1084.738447515465                                 1105.0041989320307                                1108.9106077752176                                1108.6654179041734                                1107.6384561720465
35                                                690.17112827397                                   800.5117493721899                                 1102.148519188136                                 1115.6870268634616                                1117.5628266147382                                1117.0005841727489                                1115.8486934907628
40                                                732.9159022917613                                 864.915877903121                                  1116.4796930834377                                1125.5424188253514                                1126.0571965679324                                1125.2769873988887                                1124.0336638610684
45                                                766.0682288753627                                 923.9735921076252                                 1129.6731718033643                                1135.6383879239497                                1135.186500934918                                 1134.2447074940842                                1132.927335420362
50                                                816.2523505391365                                 975.9521033883146                                 1142.4638778215617                                1146.2671611251008                                1145.1151774836608                                1144.04924515121                                  1142.668424927007
55                                                886.6235178191056                                 1022.9684649623144                                1155.8036860537345                                1157.999122130152                                 1156.3042622012413                                1155.134891088558                                 1153.6945235867997
60                                                959.9767287671228                                 1065.2855640059138                                1170.412887919188                                 1171.3953158326522                                1169.2632191989433                                1168.0023127803997                                1166.5021121423242
65                                                1015.6236879350876                                1099.9811771239592                                1187.1130170759516                                1187.2428817614796                                1184.763201403082                                 1183.4182270236251                                1181.8541386033435
70                                                1065.193592552488                                 1132.5194659983704                                1204.4967559017973                                1203.8521152648882                                1201.0479140287612                                1199.6217679156111                                1197.993887205254
75                                                1107.3259601072227                                1162.417466080783                                 1222.7171454780823                                1221.3935324056565                                1218.2930362650263                                1216.7892630296556                                1215.0977068993702
80                                                1142.0596097865478                                1189.373780312364                                 1241.2312278888062                                1239.33346372188                                  1235.967412225726                                 1234.3903956684958                                1232.6364285165919
85                                                1174.1587655838862                                1215.0760159613187                                1259.644500279458                                 1257.2148280296356                                1253.5956162587995                                1251.9470646625564                                1250.1310898121628
90                                                1202.8572723424586                                1239.03221722337                                  1277.8011561698895                                1274.8971331278394                                1271.0416535588015                                1269.3238627345781                                1267.446371920194
95                                                1226.9526362879474                                1260.0755711492152                                1294.6256010739453                                1291.3188937594082                                1287.252138075884                                 1285.4701126454315                                1283.534232263447
100                                               1249.8333662797731                                1280.350310365488                                 1311.0985146953108                                1307.4080337942555                                1303.1365965662676                                1301.2916571020187                                1299.2982121164564
105                                               1272.7140962715985                                1300.6250495817612                                1327.5714283166758                                1323.4971738291028                                1319.0210550566512                                1317.1132015586054                                1315.0621919694654
110                                               1292.5585745922203                                1318.3386554721487                                1341.9291945084537                                1337.5340218325464                                1332.8825213458945                                1330.9193401534126                                1328.8168213419044
115                                               1311.0106325985143                                1334.8777295855784                                1355.3169573646423                                1350.629691888667                                 1345.816246544598                                 1343.8012167411616                                1341.6499656957308
120                                               1329.462690604808                                 1351.4168036990081                                1368.704720220831                                 1363.7253619447874                                1358.7499717433016                                1356.6830933289107                                1354.4831100495571
125                                               1343.6718988572056                                1363.5806659941968                                1378.3097296793198                                1373.1370359704997                                1368.051066776834                                 1365.9474272513203                                1363.711973772442
130                                               1354.808182063131                                 1372.5757387352537                                1385.1750433355369                                1379.8805401741379                                1374.721194213913                                 1372.5917208452229                                1370.3304023237383
135                                               1365.9444652690563                                1381.5708114763102                                1392.0403569917548                                1386.6240443777756                                1381.3913216509914                                1379.2360144391255                                1376.9488308750347
137.62835781143386                                1371.7984926599834                                1386.2992654169848                                1395.6492571470071                                1390.1689127677892                                1384.897617961492                                 1382.728730632924                                 1380.4279505514783
