% Model:              batchmodel_BILLETTA_r_0.0257427_COIL_kr_2.4069_COIL_kw_3.2356_FUNZ_freq_4639.7_FUNZ_I_eff_85.0125.mph
% Version:            COMSOL 5.6.0.280
% Date:               Jan 27 2022, 14:22
% Table:              Tabella delle sonde 1 - 
% Tempo (s)                                       Temperatura (degC), Punto: (0, 0.5)               Temperatura (degC), Punto: (0.5*BILLETTA_r, 0.5)  Temperatura (degC), Punto: (BILLETTA_r-10*FUNZ_depth_billetta, 0.5)Temperatura (degC), Punto: (BILLETTA_r-5*FUNZ_depth_billetta, 0.5)Temperatura (degC), Punto: (BILLETTA_r-2*FUNZ_depth_billetta, 0.5)Temperatura (degC), Punto: (BILLETTA_r-FUNZ_depth_billetta, 0.5)Temperatura (degC), Punto: (BILLETTA_r-0.01[mm], 0.5)
0                                                 20                                                20                                                20.00000000009726                                 20.000550150933577                                20.197555514608837                                20.395980090323576                                20.594698520433155
5                                                 49.98265916951709                                 141.41165494728403                                506.72306495346106                                614.6246426858347                                 675.2330596509518                                 687.7493798886499                                 692.3019165601111
10                                                208.6439947051918                                 358.17779706907197                                908.7587487903032                                 1074.6840572996575                                1123.0664071116717                                1128.9415814046897                                1129.73087328963
15                                                381.2540199777378                                 541.7678987505002                                 1074.3444931757294                                1128.8387660284648                                1140.6467162617337                                1141.2498326607802                                1140.2677020303572
20                                                521.173594874328                                  671.7119356503789                                 1120.5819939927655                                1147.3550175950659                                1151.8806469954993                                1151.4562366784958                                1150.1108728269305
25                                                627.6901294890735                                 766.9201629634948                                 1143.730038064975                                 1158.9864121717515                                1160.4504307229759                                1159.583743680701                                 1158.0722805241066
30                                                703.7132477976354                                 861.2532541179477                                 1163.2483674563027                                1172.5959747298457                                1172.4395800791694                                1171.3203174321538                                1169.6949972305847
35                                                758.1909840178085                                 953.7002637472316                                 1183.3044864895242                                1189.220274027225                                 1188.0604092625663                                1186.7642722712753                                1185.039537069997
40                                                833.425769773784                                  1031.8206594526714                                1206.0469024978124                                1210.1670480278667                                1208.4078432840283                                1206.9801584131405                                1205.1585511715489
45                                                939.9806830848416                                 1097.010515683794                                 1233.5924155790822                                1236.5639273130855                                1234.3433476877035                                1232.7934640365138                                1230.8682360447924
50                                                1035.1270070507871                                1153.650402048222                                 1266.2991530095533                                1268.2085512507906                                1265.495858286617                                 1263.8047741549517                                1261.7543341601986
55                                                1111.316768978123                                 1205.879773480517                                 1301.3843901331616                                1302.098376447324                                 1298.818353158881                                 1296.9662708043084                                1294.775008962457
60                                                1178.3756973790514                                1254.7300771758023                                1335.0123474691159                                1334.5590134320219                                1330.7345017377606                                1328.7265836305946                                1326.397147530743
65                                                1235.4005940260217                                1299.8670645704606                                1367.0388747032703                                1365.4490906361189                                1361.105191917461                                 1358.9471111861108                                1356.4824103099622
65.97140294280744                                 1245.3508733646963                                1308.218659631872                                 1373.0808906548828                                1371.2737884646326                                1366.831806140574                                 1364.6451897963084                                1362.1545368360576
