% Model:              batchmodel_BILLETTA_r_0.0257427_COIL_kr_1.6756_COIL_kw_5.8583_FUNZ_freq_6066_FUNZ_I_eff_61.5962.mph
% Version:            COMSOL 5.6.0.280
% Date:               Jan 27 2022, 13:19
% Table:              Tabella delle sonde 1 - 
% Tempo (s)                                       Temperatura (degC), Punto: (0, 0.5)               Temperatura (degC), Punto: (0.5*BILLETTA_r, 0.5)  Temperatura (degC), Punto: (BILLETTA_r-10*FUNZ_depth_billetta, 0.5)Temperatura (degC), Punto: (BILLETTA_r-5*FUNZ_depth_billetta, 0.5)Temperatura (degC), Punto: (BILLETTA_r-2*FUNZ_depth_billetta, 0.5)Temperatura (degC), Punto: (BILLETTA_r-FUNZ_depth_billetta, 0.5)Temperatura (degC), Punto: (BILLETTA_r-0.01[mm], 0.5)
0                                                 20                                                19.999999999999943                                20.000000000009152                                20.000035391470476                                20.07072672578306                                 20.227083847547362                                20.3889114245967
5                                                 41.054044360382534                                103.30552725334263                                352.35027922895483                                411.45247226839945                                445.5111173471497                                 452.9486039609834                                 455.8203405198093
10                                                156.67849163340918                                271.0325628419438                                 657.0516437148182                                 751.7985322391743                                 804.6433164265414                                 814.7239237085795                                 818.1244233490366
15                                                306.7467935166427                                 440.08538502358545                                908.9031801459206                                 1025.8489191688855                                1067.5806415558532                                1073.5085307880954                                1074.730473723091
20                                                441.88748080760115                                575.7259193657666                                 1021.9474457224875                                1074.4500083513226                                1087.6549282681212                                1088.8079011823015                                1088.296597432552
25                                                551.3143646310298                                 674.2164976619904                                 1063.7228241084122                                1094.1151679248082                                1101.0742224981636                                1101.2932797698368                                1100.4384562294722
30                                                636.6243697038717                                 746.1788550189896                                 1087.4417567485566                                1106.5517684219399                                1110.0999310180887                                1109.7993478757799                                1108.751268840792
35                                                698.9725297395925                                 810.2170132281727                                 1104.4141627874687                                1117.1264153719712                                1118.7561111096693                                1118.1554184852303                                1116.9881068682967
40                                                743.2330996929782                                 876.4912730714362                                 1119.4396680592777                                1127.702030722333                                 1127.9680105971138                                1127.1470442232458                                1125.885898086704
45                                                788.3570195837186                                 937.5697866550544                                 1133.036084857984                                 1138.3125549239994                                1137.6387987990306                                1136.6589374927557                                1135.3233969011717
50                                                849.38738592994                                   988.7769428812477                                 1145.9261080564693                                1149.3856643054328                                1148.1122359948458                                1147.022027462121                                 1145.6263756432759
55                                                920.2008999983244                                 1034.661396183144                                 1159.3887025200288                                1161.332627506336                                 1159.5428072696827                                1158.3525360665803                                1156.8978727361769
60                                                983.218936503188                                  1074.8576066044575                                1174.4862629394847                                1175.29236790597                                  1173.0837900323409                                1171.8034271387637                                1170.2879508620676
65                                                1035.372630269549                                 1109.947236474687                                 1191.4500929163223                                1191.3603845511789                                1188.7912749389666                                1187.424574956181                                 1185.843901120666
70                                                1082.8082620787623                                1142.8919108811187                                1209.0996283062768                                1208.2065687523523                                1205.3024307561927                                1203.852234811202                                 1202.206093849898
75                                                1123.6849784639808                                1172.9285877077723                                1227.5756307091274                                1225.9949193553234                                1222.7914281105063                                1221.2629160830916                                1219.5525942700665
80                                                1159.0733370677676                                1200.5319154037174                                1246.743202734102                                 1244.571654312787                                 1241.0986619966475                                1239.4961682975577                                1237.7227419589753
85                                                1190.9283308714053                                1226.3068403581183                                1265.4456119300353                                1262.7437783582855                                1259.0161355501928                                1257.3410067999353                                1255.5041439245556
90                                                1218.603461092408                                 1250.0533121831695                                1284.0653794253908                                1280.9058044106164                                1276.9433225848961                                1275.1978934396247                                1273.2977277408554
95                                                1242.8982137204393                                1272.0482752309913                                1302.4262930357108                                1298.8654953943937                                1294.684460482997                                 1292.8709572372832                                1290.9080292239169
100                                               1266.2317244202245                                1293.1185826394199                                1319.883245984648                                 1315.9297060843269                                1311.5347524302051                                1309.6546536770788                                1307.630364248897
105                                               1287.2759125148623                                1312.810300513384                                 1336.790395278234                                 1332.4789661023879                                1327.88112465139                                  1325.9363194643606                                1323.851597175315
110                                               1306.905962817148                                 1331.0160995649926                                1352.2286760470388                                1347.600243087857                                 1342.82037777908                                  1340.8165551962597                                1338.6760961846044
115                                               1325.2678480353302                                1347.718078264651                                 1366.044796796415                                 1361.1412517125814                                1356.2018665371802                                1354.145349395526                                 1351.9544781976283
119.57605153813773                                1340.7299462077526                                1361.7143228120117                                1377.510835969033                                 1372.3906243186502                                1367.3223671598162                                1365.222159855351                                 1362.9888209882902
