% Model:              batchmodel_BILLETTA_r_0.0257427_COIL_kr_2.4069_COIL_kw_5.8583_FUNZ_freq_4639.7_FUNZ_I_eff_162.3068.mph
% Version:            COMSOL 5.6.0.280
% Date:               Jan 27 2022, 15:06
% Table:              Tabella delle sonde 1 - 
% Tempo (s)                                       Temperatura (degC), Punto: (0, 0.5)               Temperatura (degC), Punto: (0.5*BILLETTA_r, 0.5)  Temperatura (degC), Punto: (BILLETTA_r-10*FUNZ_depth_billetta, 0.5)Temperatura (degC), Punto: (BILLETTA_r-5*FUNZ_depth_billetta, 0.5)Temperatura (degC), Punto: (BILLETTA_r-2*FUNZ_depth_billetta, 0.5)Temperatura (degC), Punto: (BILLETTA_r-FUNZ_depth_billetta, 0.5)Temperatura (degC), Punto: (BILLETTA_r-0.01[mm], 0.5)
0                                                 20                                                19.999999999999773                                20.00000001580878                                 20.051883570596203                                20.581917205564764                                20.917428193328533                                21.227412525825343
5                                                 99.39114846509062                                 279.1546276899552                                 1211.9433203032886                                1316.2450426578444                                1339.4493464830025                                1341.1743490373833                                1340.0412576850304
8.067388118703738                                 250.08306096171418                                485.2562662440189                                 1340.5072193882543                                1383.2224299861223                                1390.5843072558487                                1390.0285243500566                                1388.0102616673516
