% Model:              batchmodel_BILLETTA_r_0.0257427_COIL_kr_2.7711_COIL_kw_3.2356_FUNZ_freq_4639.7_FUNZ_I_eff_85.0125.mph
% Version:            COMSOL 5.6.0.280
% Date:               Jan 27 2022, 15:15
% Table:              Tabella delle sonde 1 - 
% Tempo (s)                                       Temperatura (degC), Punto: (0, 0.5)               Temperatura (degC), Punto: (0.5*BILLETTA_r, 0.5)  Temperatura (degC), Punto: (BILLETTA_r-10*FUNZ_depth_billetta, 0.5)Temperatura (degC), Punto: (BILLETTA_r-5*FUNZ_depth_billetta, 0.5)Temperatura (degC), Punto: (BILLETTA_r-2*FUNZ_depth_billetta, 0.5)Temperatura (degC), Punto: (BILLETTA_r-FUNZ_depth_billetta, 0.5)Temperatura (degC), Punto: (BILLETTA_r-0.01[mm], 0.5)
0                                                 20                                                20                                                20.00000000009726                                 20.000550150662264                                20.197555492529148                                20.395980057850466                                20.594698493395867
5                                                 55.49281343814306                                 141.9818566658085                                 516.316984615735                                  632.4538280938244                                 693.4600632832215                                 705.2834655739923                                 709.482275725996
10                                                210.3008751461506                                 363.2738215239407                                 924.7501291907448                                 1068.9354946221733                                1110.5549716303494                                1115.4533926599997                                1115.9558723194714
15                                                384.3276473160141                                 546.0306850466424                                 1075.3186744290033                                1128.8237394448124                                1140.3712807094603                                1140.9399554152037                                1139.9474383153338
20                                                524.01914648267                                   674.5423425053308                                 1120.3579875155147                                1146.6166096866905                                1150.9831047811335                                1150.537403274047                                 1149.1873787483428
25                                                630.0125837020367                                 769.6912194465623                                 1144.3370962565928                                1159.3980854740703                                1160.8105997229436                                1159.935934769836                                 1158.4209158633607
30                                                705.0758134494417                                 863.3922340474356                                 1163.4937953654835                                1172.8693801943114                                1172.716506432534                                 1171.5969342555172                                1169.9707760057522
35                                                757.7927113585857                                 954.0819438070174                                 1183.3950256795001                                1189.3694154247764                                1188.224669034476                                 1186.9301155546968                                1185.205390662603
40                                                848.1202227825066                                 1030.5280177032432                                1206.2103694569496                                1210.5329401454583                                1208.8282039679566                                1207.4078090916505                                1205.5883942686764
45                                                946.8855138132961                                 1096.6486510313339                                1233.975034092894                                 1237.0096326002922                                1234.802647240646                                 1233.2534797059602                                1231.3272056490214
50                                                1037.1924564251035                                1153.969900594955                                 1266.6068095219603                                1268.4975090645994                                1265.7756151696276                                1264.0821407557355                                1262.0297985764355
55                                                1112.7483182990195                                1206.3395840914995                                1301.6618312999335                                1302.3715890125413                                1299.0881730856327                                1297.234670380034                                 1295.0418802523955
60                                                1178.7527998699893                                1255.3440361050616                                1335.656687082705                                 1335.1887881332364                                1331.353104388405                                 1329.3418783427005                                1327.0097151157606
65                                                1235.4852820901956                                1299.7824332465825                                1366.0588139450115                                1364.4831883145266                                1360.156598069449                                 1358.0042305125316                                1355.544491605875
67.62740052909294                                 1262.0151177537514                                1321.5177072812912                                1380.7628296526564                                1378.6298683928667                                1374.0670362529454                                1371.8463710122642                                1369.3237694871787
