% Model:              batchmodel_BILLETTA_r_0.0257427_COIL_kr_1.9397_COIL_kw_4.5299_FUNZ_freq_7167.5_FUNZ_I_eff_85.0125.mph
% Version:            COMSOL 5.6.0.280
% Date:               Jan 27 2022, 13:54
% Table:              Tabella delle sonde 1 - 
% Tempo (s)                                       Temperatura (degC), Punto: (0, 0.5)               Temperatura (degC), Punto: (0.5*BILLETTA_r, 0.5)  Temperatura (degC), Punto: (BILLETTA_r-10*FUNZ_depth_billetta, 0.5)Temperatura (degC), Punto: (BILLETTA_r-5*FUNZ_depth_billetta, 0.5)Temperatura (degC), Punto: (BILLETTA_r-2*FUNZ_depth_billetta, 0.5)Temperatura (degC), Punto: (BILLETTA_r-FUNZ_depth_billetta, 0.5)Temperatura (degC), Punto: (BILLETTA_r-0.01[mm], 0.5)
0                                                 20                                                20                                                20.000000000271314                                20.0014339742022                                  20.309218771007295                                20.610553051586635                                20.889764106333814
5                                                 63.18633869138711                                 167.16491642868135                                694.079828204688                                  846.387794880248                                  923.1882132450561                                 937.0732017037436                                 941.6231003687388
10                                                241.20573331092112                                406.2210767026046                                 1056.0419579651434                                1124.2880132731739                                1140.4087663797259                                1141.833466461897                                 1141.3661780962552
15                                                416.42823809927575                                581.3677640499777                                 1123.1285644281493                                1151.2530310182033                                1156.779563169659                                 1156.7044893896996                                1155.713304991567
20                                                552.079324532636                                  701.831259333651                                  1154.208656519908                                 1169.4257260593313                                1171.4763074964285                                1170.8911186150785                                1169.7026497930715
25                                                652.6089329718077                                 799.3907412869236                                 1179.8369533500022                                1189.4796537865332                                1189.967654382163                                 1189.1297872087684                                1187.8194655332586
30                                                720.8718758495417                                 900.1954561787185                                 1206.7811203942097                                1213.690635911475                                 1213.3449228295626                                1212.3475725052585                                1210.9367006053535
35                                                772.2635840420866                                 992.7193142961611                                 1238.743604062442                                 1244.1763367603162                                1243.3042038709036                                1242.1805206951858                                1240.6699657493155
40                                                860.1653261060081                                 1073.6094976542222                                1277.4350036865944                                1281.9131030915128                                1280.5930296182719                                1279.3365650494447                                1277.7061949316253
45                                                981.5818183557741                                 1147.4334224023987                                1321.775016423548                                 1325.216652484974                                 1323.3655968646613                                1321.9488774454526                                1320.1739520714495
50                                                1082.1207922143926                                1212.1356654207743                                1360.88746227823                                  1362.9458490466995                                1360.5064737318312                                1358.931085967422                                 1357.0202656649435
55                                                1165.9779280798712                                1270.8786483582676                                1391.8030486154535                                1392.3293740221948                                1389.3324772906985                                1387.6214749236988                                1385.5998288266683
55.24037020175233                                 1170.0092794131428                                1273.7026608903116                                1393.2892857604875                                1393.741958787506                                 1390.7182597489304                                1389.0007378400533                                1386.9737638993033
