% Model:              batchmodel_BILLETTA_r_0.0257427_COIL_kr_1.9397_COIL_kw_4.5299_FUNZ_freq_8940.8_FUNZ_I_eff_127.5152.mph
% Version:            COMSOL 5.6.0.280
% Date:               Jan 27 2022, 13:57
% Table:              Tabella delle sonde 1 - 
% Tempo (s)                                       Temperatura (degC), Punto: (0, 0.5)               Temperatura (degC), Punto: (0.5*BILLETTA_r, 0.5)  Temperatura (degC), Punto: (BILLETTA_r-10*FUNZ_depth_billetta, 0.5)Temperatura (degC), Punto: (BILLETTA_r-5*FUNZ_depth_billetta, 0.5)Temperatura (degC), Punto: (BILLETTA_r-2*FUNZ_depth_billetta, 0.5)Temperatura (degC), Punto: (BILLETTA_r-FUNZ_depth_billetta, 0.5)Temperatura (degC), Punto: (BILLETTA_r-0.01[mm], 0.5)
0                                                 20                                                19.999999999999943                                20.000000012957116                                20.03386160709215                                 20.774933884217944                                21.303203713588914                                21.745506317899014
5                                                 98.69218053741866                                 267.4496813886343                                 1199.028190977927                                 1264.5480902057006                                1279.6024165955537                                1280.7493305042608                                1280.0457466429884
10                                                326.20826179015523                                537.5389342559707                                 1292.5449838426666                                1315.285538916024                                 1319.3004230088827                                1318.8715789810872                                1317.5805596346818
14.471711319140805                                498.19622688620814                                713.7829022806168                                 1361.874949680412                                 1377.4031147386759                                1379.3825432684703                                1378.5801074044157                                1377.0493852304326
