% Model:              batchmodel_BILLETTA_r_0.0257427_COIL_kr_1.4848_COIL_kw_4.5299_FUNZ_freq_4639.7_FUNZ_I_eff_85.0125.mph
% Version:            COMSOL 5.6.0.280
% Date:               Jan 27 2022, 12:02
% Table:              Tabella delle sonde 1 - 
% Tempo (s)                                       Temperatura (degC), Punto: (0, 0.5)               Temperatura (degC), Punto: (0.5*BILLETTA_r, 0.5)  Temperatura (degC), Punto: (BILLETTA_r-10*FUNZ_depth_billetta, 0.5)Temperatura (degC), Punto: (BILLETTA_r-5*FUNZ_depth_billetta, 0.5)Temperatura (degC), Punto: (BILLETTA_r-2*FUNZ_depth_billetta, 0.5)Temperatura (degC), Punto: (BILLETTA_r-FUNZ_depth_billetta, 0.5)Temperatura (degC), Punto: (BILLETTA_r-0.01[mm], 0.5)
0                                                 20                                                19.999999999999773                                20.00000000009777                                 20.000565641741844                                20.197992324093207                                20.39418334797159                                 20.590844059134213
5                                                 55.74344517220243                                 139.74027401250828                                494.9156597980384                                 603.5395269078498                                 662.5360478185502                                 674.2011382008649                                 678.4071241734241
10                                                206.42620090896833                                353.51737539270357                                890.1540815180966                                 1047.9729706241774                                1098.690203262644                                 1105.0423515026123                                1106.0597925910893
15                                                376.8615888560083                                 536.0414669825295                                 1069.009950995474                                 1126.586940592717                                 1139.2307050602608                                1139.954885265548                                 1139.016098224281
20                                                516.6021151482943                                 666.8129379203591                                 1117.847456981608                                 1145.2960765289713                                1149.975401113944                                 1149.5752250922005                                1148.2426369166078
25                                                623.7435295817727                                 762.3356111222303                                 1142.5710846878296                                1158.2991519856082                                1159.8918334251257                                1159.0442517829988                                1157.5404602085036
30                                                700.5828863664063                                 856.5273291474256                                 1162.5684303494213                                1172.0692025563972                                1171.9559321555394                                1170.8438308276827                                1169.2221307454365
35                                                756.2319708624256                                 950.236579676532                                  1182.6656413309179                                1188.6523886676023                                1187.5134983636362                                1186.2214826141458                                1184.499457334809
40                                                830.8127559406047                                 1028.4169769370492                                1205.299771891337                                 1209.5189697114834                                1207.7891949280593                                1206.3669100560815                                1204.5484898189789
45                                                936.0263073012501                                 1094.2378234026746                                1232.5397878585054                                1235.5681725510444                                1233.3683407232788                                1231.823467365742                                 1229.9022252772288
50                                                1031.319943048743                                 1151.3464438871902                                1264.9410259160713                                1266.8942843482641                                1264.2018532512661                                1262.516578269032                                 1260.4712918143446
55                                                1108.7956734981858                                1203.8901970544712                                1299.9177514669927                                1300.6786891706429                                1297.422532842575                                 1295.5773947406847                                1293.3922145531224
60                                                1176.4728555451402                                1252.9476718494643                                1333.6138822531348                                1333.2056661246584                                1329.4038415068098                                1327.4025355809267                                1325.0789173382927
65                                                1234.3564810715116                                1298.5206443607499                                1366.030070674993                                 1364.475855808404                                 1360.1464106429344                                1357.9926303061493                                1355.53202894465
65.83904084758015                                 1243.119239174036                                 1305.82994693222                                  1371.3455375028857                                1369.6012621772466                                1365.185029732569                                 1363.0060214359241                                1360.5225744077484
