% Model:              batchmodel_BILLETTA_r_0.0257427_COIL_kr_2.7711_COIL_kw_4.5299_FUNZ_freq_6066_FUNZ_I_eff_61.5962.mph
% Version:            COMSOL 5.6.0.280
% Date:               Jan 27 2022, 15:38
% Table:              Tabella delle sonde 1 - 
% Tempo (s)                                       Temperatura (degC), Punto: (0, 0.5)               Temperatura (degC), Punto: (0.5*BILLETTA_r, 0.5)  Temperatura (degC), Punto: (BILLETTA_r-10*FUNZ_depth_billetta, 0.5)Temperatura (degC), Punto: (BILLETTA_r-5*FUNZ_depth_billetta, 0.5)Temperatura (degC), Punto: (BILLETTA_r-2*FUNZ_depth_billetta, 0.5)Temperatura (degC), Punto: (BILLETTA_r-FUNZ_depth_billetta, 0.5)Temperatura (degC), Punto: (BILLETTA_r-0.01[mm], 0.5)
0                                                 20                                                19.999999999999943                                20.000000000023363                                20.000106911009993                                20.141565418130824                                20.332656144105158                                20.529959099769826
5                                                 45.52301021765635                                 107.7971386238454                                 366.1353656624269                                 428.0492768548529                                 464.61625526919954                                472.33120187757027                                475.2644240125643
10                                                164.93032127620978                                280.3338977440368                                 667.3270845858967                                 759.8803838490163                                 810.9959656209768                                 821.0636843216961                                 824.4626090830894
15                                                316.4275876657142                                 448.04856007846877                                908.7951756143499                                 1013.4336562296152                                1056.650093742025                                 1063.9371680959584                                1065.7784560623836
20                                                448.6596154682618                                 580.3109515150289                                 1025.799239614134                                 1078.3246330473157                                1091.6622861366282                                1092.8125029058692                                1092.2885812000604
25                                                555.9183265162875                                 677.8619825013935                                 1065.9623083164847                                1095.0841436352016                                1101.6034030244086                                1101.7553358317518                                1100.8768832127648
30                                                639.8138072101854                                 749.8150981232405                                 1088.397574217358                                 1107.0528843589932                                1110.484663875613                                 1110.1665212480048                                1109.1117817141526
35                                                700.4747517350064                                 813.0497057921735                                 1104.4490692555069                                1117.2083208312683                                1118.8496871646767                                1118.2504800019447                                1117.0834558374063
40                                                746.1156061884686                                 876.5275915420808                                 1118.764319603541                                 1127.2258412313445                                1127.5521264720442                                1126.7410741235512                                1125.4841542705876
45                                                792.8634290766357                                 935.5441830098465                                 1132.1130744696416                                1137.7706809359115                                1137.2132870238147                                1136.25152937217                                  1134.9229619337298
50                                                857.2940443034387                                 987.7277424827479                                 1144.8468196944182                                1148.4206045744263                                1147.1884002112024                                1146.1062153520538                                1144.7153249539292
55                                                922.1885804950169                                 1032.5428183979811                                1158.857206977786                                 1160.951934280427                                 1159.209307903866                                 1158.0267104877448                                1156.5753046987306
60                                                982.6451267670694                                 1073.3161219790486                                1173.966771264123                                 1174.841478674451                                 1172.6559990297997                                1171.3798966632166                                1169.8667306151524
65                                                1035.3641142210904                                1109.2127132322353                                1190.6051406963525                                1190.5354669303601                                1187.9771839843515                                1186.6138440931245                                1185.0362801578494
70                                                1078.7018891800321                                1140.424688171007                                 1208.7003121518837                                1207.8864017639721                                1205.011122832619                                 1203.5667845770272                                1201.9241670856559
75                                                1119.2638709010894                                1170.2968256020745                                1227.0530710750395                                1225.549531149813                                 1222.3730724528014                                1220.8497891526927                                1219.1423976731348
80                                                1154.7087931979117                                1197.7764877050436                                1245.5903960784271                                1243.4901721373813                                1240.040524605145                                 1238.4424282527634                                1236.6715706658015
85                                                1186.123444128184                                 1223.371801003239                                 1264.273088044894                                 1261.649385349659                                 1257.9485950512571                                1256.2789400645506                                1254.4456464763516
90                                                1214.2765413443208                                1247.2938817766708                                1282.7807181176968                                1279.6900105968462                                1275.7546617022153                                1274.015791741192                                 1272.120706496697
95                                                1240.340498266603                                 1269.8647150339393                                1300.6245826867248                                1297.0978263958482                                1292.9361728332378                                1291.1290425110615                                1289.1722216096232
100                                               1263.5066241036288                                1290.8622064976162                                1318.1417728346837                                1314.2275251878523                                1309.8535668021186                                1307.9800888490922                                1305.9619941107844
105                                               1284.5708426143915                                1310.4306747639284                                1334.8745008218011                                1330.6126794468637                                1326.0412968299988                                1324.1045732980365                                1322.0272108740114
110                                               1304.6425680756142                                1328.7712811994534                                1350.1846700358392                                1345.6031498215357                                1340.8504512125678                                1338.855241913342                                 1336.7227705515616
115                                               1322.937655599902                                 1345.741842978125                                 1364.523293418174                                 1359.6584611793137                                1354.7396871043097                                1352.6895801286428                                1350.5046371005405
120                                               1339.385418472932                                 1360.9267589234746                                1377.3409678125167                                1372.2336013319627                                1367.1693056473696                                1365.070181491776                                 1362.8377968133705
125                                               1353.8959137183747                                1373.7972110371625                                1387.9386233080004                                1382.6350875109747                                1377.452584845094                                 1375.313240902039                                 1373.041489158214
130                                               1366.5344071977256                                1384.736928695791                                 1396.8235301978834                                1391.3661357779797                                1386.087834899673                                 1383.9149519569146                                1381.6096984837836
132.7493077891313                                 1372.6861602623171                                1389.9295639696006                                1400.9791888044174                                1395.4552222255393                                1390.1337940734188                                1387.9453160387325                                1385.6241404994998
