% Model:              batchmodel_BILLETTA_r_0.0257427_COIL_kr_1.4848_COIL_kw_3.7744_FUNZ_freq_8940.8_FUNZ_I_eff_162.3068.mph
% Version:            COMSOL 5.6.0.280
% Date:               Jan 27 2022, 11:58
% Table:              Tabella delle sonde 1 - 
% Tempo (s)                                       Temperatura (degC), Punto: (0, 0.5)               Temperatura (degC), Punto: (0.5*BILLETTA_r, 0.5)  Temperatura (degC), Punto: (BILLETTA_r-10*FUNZ_depth_billetta, 0.5)Temperatura (degC), Punto: (BILLETTA_r-5*FUNZ_depth_billetta, 0.5)Temperatura (degC), Punto: (BILLETTA_r-2*FUNZ_depth_billetta, 0.5)Temperatura (degC), Punto: (BILLETTA_r-FUNZ_depth_billetta, 0.5)Temperatura (degC), Punto: (BILLETTA_r-0.01[mm], 0.5)
0                                                 20                                                20                                                20.000000110761846                                20.105772520004507                                21.13378992452732                                 21.77353126250074                                 22.30027396014873
4.116342266818562                                 72.4528919725933                                  247.5435910800344                                 1330.6482915700653                                1386.2138079907254                                1398.0375218417967                                1398.554708876437                                 1397.4175620865021
