% Model:              batchmodel_BILLETTA_r_0.0257427_COIL_kr_2.7711_COIL_kw_5.3284_FUNZ_freq_7167.5_FUNZ_I_eff_127.5152.mph
% Version:            COMSOL 5.6.0.280
% Date:               Jan 27 2022, 15:52
% Table:              Tabella delle sonde 1 - 
% Tempo (s)                                       Temperatura (degC), Punto: (0, 0.5)               Temperatura (degC), Punto: (0.5*BILLETTA_r, 0.5)  Temperatura (degC), Punto: (BILLETTA_r-10*FUNZ_depth_billetta, 0.5)Temperatura (degC), Punto: (BILLETTA_r-5*FUNZ_depth_billetta, 0.5)Temperatura (degC), Punto: (BILLETTA_r-2*FUNZ_depth_billetta, 0.5)Temperatura (degC), Punto: (BILLETTA_r-FUNZ_depth_billetta, 0.5)Temperatura (degC), Punto: (BILLETTA_r-0.01[mm], 0.5)
0                                                 19.999999999999943                                20                                                20.00000000535715                                 20.025657506113816                                20.618361609001226                                21.044354839451728                                21.416686256746686
5                                                 91.53085626494277                                 255.42634001160786                                1145.874208608794                                 1234.011297668912                                 1254.5044621454076                                1256.3189909509147                                1255.7470417748978
10                                                320.117997362242                                  534.4607601878922                                 1272.018187030983                                 1297.9713272665444                                1302.4236115449185                                1301.95176306654                                  1300.5357231951944
15                                                513.0098679700453                                 728.8738274965457                                 1333.518483330275                                 1349.4054414182915                                1351.2078110759585                                1350.2913665471783                                1348.6252938867824
17.797787328352136                                598.539335220192                                  836.4459423154341                                 1371.4155006467886                                1384.616673461649                                 1385.5769192074463                                1384.4849784976368                                1382.6847040292323
