% Model:              batchmodel_BILLETTA_r_0.0445341_COIL_kr_1.4848_COIL_kw_3.7744_FUNZ_freq_6066_FUNZ_I_eff_61.5962.mph
% Version:            COMSOL 5.6.0.401
% Date:               Jan 27 2022, 12:40
% Table:              Tabella delle sonde 1 - 
% Tempo (s)                                       Temperatura (degC), Punto: (0, 0.5)               Temperatura (degC), Punto: (0.5*BILLETTA_r, 0.5)  Temperatura (degC), Punto: (BILLETTA_r-10*FUNZ_depth_billetta, 0.5)Temperatura (degC), Punto: (BILLETTA_r-5*FUNZ_depth_billetta, 0.5)Temperatura (degC), Punto: (BILLETTA_r-2*FUNZ_depth_billetta, 0.5)Temperatura (degC), Punto: (BILLETTA_r-FUNZ_depth_billetta, 0.5)Temperatura (degC), Punto: (BILLETTA_r-0.01[mm], 0.5)
0                                                 20                                                20.000000000000057                                20.000000000022737                                20.000106091192208                                20.141574516399942                                20.332319168374454                                20.53011720379311
5                                                 20.626546263819648                                33.83699142481373                                 321.1624772296375                                 377.6965455426738                                 412.0481159196697                                 419.68253425149123                                422.63589264609595
10                                                33.87881905030622                                 94.56490403376978                                 591.970162960259                                  680.4285122986719                                 728.8055352395876                                 738.4220545577135                                 741.8001906818874
15                                                69.05905900942668                                 174.9593857069367                                 815.7649248515321                                 940.0803033456949                                 995.5045508495922                                 1004.8225733305336                                1007.4949847623649
20                                                122.00284093050522                                257.5493844395787                                 961.9132364032706                                 1051.0106043300352                                1078.5811957935935                                1081.936869433377                                 1082.1911561511124
25                                                182.3496481267129                                 333.94613141522075                                1019.4533115546213                                1076.2510055076314                                1091.355968949426                                 1092.797575791706                                 1092.3750835370906
30                                                243.89178756921092                                400.09295173799705                                1044.1696003074376                                1085.6918153338702                                1096.151506040122                                 1096.909014672818                                 1096.2476746415355
35                                                302.1292249332124                                 458.29132360321955                                1062.2218284002038                                1093.7725893254988                                1101.2284060791299                                1101.5344720352987                                1100.7106706546083
40                                                356.8148704660475                                 510.44721609174326                                1076.5659271547274                                1101.1043440043545                                1106.4278538607982                                1106.4071022249723                                1105.4621574492285
45                                                407.38633499463276                                556.761642260026                                  1087.8232394328238                                1107.7010205958522                                1111.5808116272751                                1111.334083508431                                 1110.3019905673805
50                                                453.4864982475625                                 597.723524028364                                  1097.5356559826064                                1113.658279107045                                 1116.3806246378485                                1115.9518899980412                                1114.8482322861214
55                                                495.37029910412923                                633.7084889789099                                 1105.7837958080286                                1119.0818148006783                                1120.9352061597824                                1120.368222075646                                 1119.2082620652795
60                                                534.117799099334                                  666.9398175785127                                 1113.8311090840375                                1124.6174395572061                                1125.6921808651027                                1124.999755556364                                 1123.7873154536069
65                                                569.4043211020402                                 696.7238343786714                                 1121.260828250308                                 1130.063076384843                                 1130.5173714752054                                1129.7228213690764                                1128.4655666020049
70                                                601.2298651122478                                 723.0605393793855                                 1128.0729533068393                                1135.418725283589                                 1135.4107779900896                                1134.5374195137838                                1133.2430155104726
75                                                630.0628224923585                                 749.033506992351                                  1134.7863118890868                                1140.825373327893                                 1140.3979359394502                                1139.4519266588059                                1138.1221754596586
80                                                655.8163600674666                                 774.0710858641932                                 1141.30472064605                                  1146.2568834958593                                1145.4741113950063                                1144.4647898875787                                1143.1025805226573
85                                                678.3926624470655                                 797.5293251037427                                 1147.5198314487038                                1151.6838130888154                                1150.6339717054566                                1149.5742598785973                                1148.1837058445126
90                                                698.1366733588343                                 821.368223503999                                  1153.8521459148947                                1157.3128397015766                                1156.020301097944                                 1154.9133697116517                                1153.4949580737307
95                                                715.0673462314812                                 845.6954760146358                                 1160.3247691101624                                1163.1553195315291                                1161.6409450569708                                1160.4894290804446                                1159.0434476445362
100                                               729.07897072096                                   869.9104277168525                                 1166.8088354627407                                1169.1479148284798                                1167.452146388061                                 1166.2616690957161                                1164.7895170121246
105                                               742.8149119337634                                 893.507551906553                                  1173.6183061041297                                1175.511943291479                                 1173.646442723461                                 1172.4179027878527                                1170.918898273575
110                                               757.0553237048779                                 916.3376491424948                                 1180.8458424605465                                1182.3127238775032                                1180.2806589685938                                1179.0135606592685                                1177.4864077716843
115                                               770.6519310625966                                 938.6203196836112                                 1188.3550601526604                                1189.454116415076                                 1187.271156982184                                 1185.9670569306763                                1184.4113636823668
120                                               790.4294390389472                                 959.7770412918925                                 1196.5414439602619                                1197.327788148158                                 1195.0075754412378                                1193.6674020581818                                1192.082151266592
125                                               815.6904797712142                                 980.3328793756631                                 1205.1176837758385                                1205.6014853604147                                1203.1458875555254                                1201.7694744781256                                1200.1540618927443
130                                               840.9515205034814                                 1000.8887174594335                                1213.6939235914151                                1213.8751825726713                                1211.2841996698135                                1209.8715468980695                                1208.225972518896
135                                               867.5681406668222                                 1020.7958930218632                                1222.6485618454367                                1222.54396264482                                  1219.8212085140249                                1218.3723747781019                                1216.6961234010091
140                                               895.7193976112202                                 1039.9687247746092                                1232.0315808702344                                1231.660011740426                                 1228.8095776047871                                1227.3246293924685                                1225.6171177604465
145                                               923.8706545556182                                 1059.1415565273564                                1241.414599895032                                 1240.7760608360322                                1237.7979466955485                                1236.2768840068347                                1234.5381121198839
150                                               950.2519975594577                                 1077.3944177491762                                1250.8328349815097                                1249.9351597633026                                1246.830955027413                                 1245.2736939815886                                1243.5032491151478
155                                               973.8655074900299                                 1094.2086074042145                                1260.3061417740137                                1259.161581030463                                 1255.93377125505                                  1254.3401806774777                                1252.5374174031672
160                                               997.4790174206022                                 1111.0227970592528                                1269.7794485665177                                1268.3880022976232                                1265.036587482687                                 1263.4066673733669                                1261.571585691187
165                                               1021.0925273511745                                1127.8369867142915                                1279.252755359022                                 1277.614423564783                                 1274.1394037103237                                1272.473154069256                                 1270.605753979206
170                                               1044.7060372817468                                1144.6511763693297                                1288.7260621515256                                1286.8408448319428                                1283.2422199379607                                1281.5396407651451                                1279.6399222672253
175                                               1066.5975892313218                                1160.6502871866442                                1298.0331644729536                                1295.9092842015898                                1292.1895328579317                                1290.450965275385                                 1288.5189986745822
180                                               1085.7963027657834                                1175.3747585355222                                1307.0803523310688                                1304.730667761973                                 1300.8936660457716                                1299.1196435081306                                1297.155538749039
185                                               1104.9950163002445                                1190.0992298843994                                1316.127540189184                                 1313.5520513223564                                1309.5977992336116                                1307.7883217408762                                1305.7920788234956
190                                               1124.1937298347061                                1204.823701233277                                 1325.1747280472996                                1322.3734348827397                                1318.301932421451                                 1316.4569999736218                                1314.4286188979518
195                                               1143.3924433691677                                1219.5481725821546                                1334.2219159054148                                1331.1948184431226                                1327.006065609291                                 1325.1256782063674                                1323.0651589724084
200                                               1161.1049379014762                                1233.3564594697855                                1342.7142281979127                                1339.4740137523477                                1335.1747319407496                                1333.2607436224557                                1331.1696171050467
205                                               1176.4932481816518                                1245.7319955355028                                1350.338813022497                                 1346.9053223145938                                1342.5060226005617                                1340.5613327578526                                1338.4419929750925
210                                               1191.8815584618274                                1258.1075316012202                                1357.9633978470824                                1354.3366308768404                                1349.8373132603742                                1347.861921893249                                 1345.7143688451383
215                                               1207.269868742003                                 1270.4830676669376                                1365.5879826716673                                1361.7679394390866                                1357.1686039201863                                1355.1625110286454                                1352.9867447151842
220                                               1222.6581790221785                                1282.8586037326545                                1373.2125674962522                                1369.1992480013332                                1364.499894579999                                 1362.4631001640423                                1360.2591205852304
223.0497877744554                                 1232.0443951345796                                1290.407155451766                                 1377.8632406129154                                1373.7320308016024                                1368.9716707050538                                1366.9161496623328                                1364.6949611891723
