% Model:              batchmodel_BILLETTA_r_0.0445341_COIL_kr_2.7711_COIL_kw_3.2356_FUNZ_freq_6066_FUNZ_I_eff_162.3068.mph
% Version:            COMSOL 5.6.0.401
% Date:               Jan 27 2022, 19:01
% Table:              Tabella delle sonde 1 - 
% Tempo (s)                                       Temperatura (degC), Punto: (0, 0.5)               Temperatura (degC), Punto: (0.5*BILLETTA_r, 0.5)  Temperatura (degC), Punto: (BILLETTA_r-10*FUNZ_depth_billetta, 0.5)Temperatura (degC), Punto: (BILLETTA_r-5*FUNZ_depth_billetta, 0.5)Temperatura (degC), Punto: (BILLETTA_r-2*FUNZ_depth_billetta, 0.5)Temperatura (degC), Punto: (BILLETTA_r-FUNZ_depth_billetta, 0.5)Temperatura (degC), Punto: (BILLETTA_r-0.01[mm], 0.5)
0                                                 20                                                19.999999999999943                                20.00000002609073                                 20.06757664763842                                 20.76499993375222                                 21.20857531626109                                 21.603550512602737
5                                                 21.221178437635672                                67.06884095884925                                 1272.2109629599017                                1359.2207454328873                                1379.0987851692316                                1380.5255652359947                                1379.432380504666
6.218885176479678                                 23.624294695970434                                97.56680419831616                                 1325.3061062642382                                1386.3070080446696                                1399.0073762529632                                1399.4010138643634                                1397.9193015226328
