% Model:              batchmodel_BILLETTA_r_0.0445341_COIL_kr_1.9397_COIL_kw_5.3284_FUNZ_freq_6066_FUNZ_I_eff_162.3068.mph
% Version:            COMSOL 5.6.0.401
% Date:               Jan 27 2022, 16:45
% Table:              Tabella delle sonde 1 - 
% Tempo (s)                                       Temperatura (degC), Punto: (0, 0.5)               Temperatura (degC), Punto: (0.5*BILLETTA_r, 0.5)  Temperatura (degC), Punto: (BILLETTA_r-10*FUNZ_depth_billetta, 0.5)Temperatura (degC), Punto: (BILLETTA_r-5*FUNZ_depth_billetta, 0.5)Temperatura (degC), Punto: (BILLETTA_r-2*FUNZ_depth_billetta, 0.5)Temperatura (degC), Punto: (BILLETTA_r-FUNZ_depth_billetta, 0.5)Temperatura (degC), Punto: (BILLETTA_r-0.01[mm], 0.5)
0                                                 20                                                19.999999999999943                                20.00000002609073                                 20.06757669742933                                 20.765000198897155                                21.20857565863639                                 21.603550923241187
5                                                 21.207555798341673                                66.79691861638082                                 1269.17858557198                                  1355.7957287696122                                1375.6114054879604                                1377.0402160240724                                1375.9557391512544
5.539722639005685                                 21.99221486047395                                 79.60543393719513                                 1297.9937893745896                                1371.0321783464856                                1387.013075083693                                 1387.8841117726297                                1386.5896286150955
