% Model:              batchmodel_BILLETTA_r_0.0445341_COIL_kr_2.7711_COIL_kw_4.5299_FUNZ_freq_6066_FUNZ_I_eff_127.5152.mph
% Version:            COMSOL 5.6.0.401
% Date:               Jan 27 2022, 19:41
% Table:              Tabella delle sonde 1 - 
% Tempo (s)                                       Temperatura (degC), Punto: (0, 0.5)               Temperatura (degC), Punto: (0.5*BILLETTA_r, 0.5)  Temperatura (degC), Punto: (BILLETTA_r-10*FUNZ_depth_billetta, 0.5)Temperatura (degC), Punto: (BILLETTA_r-5*FUNZ_depth_billetta, 0.5)Temperatura (degC), Punto: (BILLETTA_r-2*FUNZ_depth_billetta, 0.5)Temperatura (degC), Punto: (BILLETTA_r-FUNZ_depth_billetta, 0.5)Temperatura (degC), Punto: (BILLETTA_r-0.01[mm], 0.5)
0                                                 20                                                20.000000000000057                                20.000000003102855                                20.020073756379134                                20.521428162459642                                20.887430632764676                                21.21880017834718
5                                                 21.084575525161313                                57.14476622024432                                 1044.1813352522045                                1190.942491893049                                 1227.8204523906998                                1231.9233750017438                                1232.0589981671715
10                                                47.003214432226                                   176.15169071598126                                1227.8156052594418                                1276.1255990344284                                1286.3609441280987                                1286.632622951986                                 1285.3802028079908
15                                                112.5676858131344                                 292.201732784035                                  1274.8761499570755                                1302.2890769171672                                1307.027306378062                                 1306.5012315417262                                1304.9411949473965
20                                                191.6017107257113                                 394.211842835976                                  1312.9969537064753                                1332.7625960771934                                1335.4453276375193                                1334.582472173519                                 1332.8457674121278
25                                                269.1766168085255                                 480.8780978472796                                 1352.8083939975027                                1369.3348477867921                                1371.0276974632616                                1369.9567342236264                                1368.0650971192636
28.868759514654094                                326.22990879941847                                541.9768762746809                                 1380.6348953129318                                1394.6119145432704                                1395.5148467830509                                1394.2874883270988                                1392.2839916276234
