% Model:              batchmodel_BILLETTA_r_0.0445341_COIL_kr_1.4848_COIL_kw_4.5299_FUNZ_freq_4639.7_FUNZ_I_eff_85.0125.mph
% Version:            COMSOL 5.6.0.401
% Date:               Jan 27 2022, 12:57
% Table:              Tabella delle sonde 1 - 
% Tempo (s)                                       Temperatura (degC), Punto: (0, 0.5)               Temperatura (degC), Punto: (0.5*BILLETTA_r, 0.5)  Temperatura (degC), Punto: (BILLETTA_r-10*FUNZ_depth_billetta, 0.5)Temperatura (degC), Punto: (BILLETTA_r-5*FUNZ_depth_billetta, 0.5)Temperatura (degC), Punto: (BILLETTA_r-2*FUNZ_depth_billetta, 0.5)Temperatura (degC), Punto: (BILLETTA_r-FUNZ_depth_billetta, 0.5)Temperatura (degC), Punto: (BILLETTA_r-0.01[mm], 0.5)
0                                                 20                                                20                                                20.000000000044167                                20.00022244235123                                 20.093900859902703                                20.270924387193418                                20.410748942739417
5                                                 20.303213589948825                                36.39834610498718                                 479.7024514889721                                 593.9821354032347                                 655.4817274337162                                 667.5164164865989                                 671.8511175425631
10                                                31.626753582589117                                114.50847141940164                                848.7132070319225                                 1022.8331755282778                                1086.1405803973603                                1095.15370248404                                  1097.2205164965712
15                                                72.55364852097955                                 215.88564437013963                                1033.6013836733068                                1115.1426862458393                                1134.7530210517466                                1136.5074373515235                                1135.9239887160693
20                                                138.3352516349965                                 311.14864214820943                                1091.8240358316816                                1139.4454556052906                                1149.724557728448                                 1150.1213270468807                                1149.0523129152812
25                                                211.19941872684194                                393.90579403699974                                1115.1206513930183                                1146.4209374525085                                1152.3545894481076                                1152.1425816613273                                1150.8680524225233
30                                                282.5296734695273                                 464.8614576052912                                 1130.863088659154                                 1153.8788772897356                                1157.5871224696634                                1157.0531311630261                                1155.6598085934556
35                                                348.140134933661                                  525.6896112384994                                 1143.902355852575                                 1161.6580744340981                                1163.914768048599                                 1163.162520450564                                 1161.6811815123815
40                                                406.95954095384207                                578.6367145322365                                 1155.7163228447248                                1169.5390670247598                                1170.7018160996845                                1169.7805861140214                                1168.2261029088618
45                                                459.6429953886128                                 624.9546202927883                                 1166.7454046899152                                1177.775617040803                                 1178.1427110002828                                1177.0922950550653                                1175.4757682430723
50                                                506.6311291625665                                 665.371177750694                                  1177.2828585445827                                1186.4573622104404                                1186.2721854870083                                1185.1245726153147                                1183.454415076933
55                                                549.0094538699825                                 701.5071211896825                                 1188.0001710599677                                1195.738497715397                                 1195.1090173350335                                1193.8774072275373                                1192.1557808955135
60                                                587.0519956337973                                 734.5933379178617                                 1199.1410204757121                                1205.7839008975357                                1204.800947429626                                 1203.4972444851105                                1201.7267363116362
65                                                621.072048423748                                  766.3219586001193                                 1211.0126608495466                                1216.8134965664958                                1215.5428301655224                                1214.1749414984138                                1212.3563896491628
70                                                651.7295915488771                                 801.2719665408109                                 1224.3558472602108                                1229.4282932743945                                1227.889494243424                                 1226.4564682467285                                1224.5857881891739
75                                                678.8165179505576                                 838.0837992427815                                 1238.9447723733847                                1243.4502239265203                                1241.6779854013052                                1240.1816274225853                                1238.2561839223622
80                                                702.6103235102595                                 875.7840564024876                                 1254.6567087316917                                1258.7073408858937                                1256.721887961202                                 1255.1618585873352                                1253.1781976968978
85                                                723.8098210884206                                 911.9214416371982                                 1271.1825939984656                                1274.7666315275787                                1272.5517546921906                                1270.9223133980086                                1268.8749194192087
90                                                741.9804925581137                                 948.0201580248298                                 1288.7146014939685                                1291.8973408030852                                1289.4594853903686                                1287.7582500335006                                1285.6428892537697
95                                                760.2142686737797                                 983.6397852991432                                 1306.9687192495526                                1309.7698493005569                                1307.1051711723712                                1305.328990876886                                 1303.1418886362599
100                                               786.8047276961248                                 1017.5989710186544                                1325.1831334744115                                1327.5000090213543                                1324.5770642826433                                1322.7207261756053                                1320.4593391446383
105                                               816.6528745260088                                 1050.62402536217                                  1343.826216765231                                 1345.631405155158                                 1342.4357185847994                                1340.4952775346856                                1338.1563053466098
110                                               850.2882305494662                                 1082.6628842075688                                1361.9283245945844                                1363.188048406496                                 1359.7141494937446                                1357.6898182629056                                1355.2741785331282
115                                               889.2248205420393                                 1113.5666841229145                                1376.717017781149                                 1377.379358426812                                 1373.6475232218168                                1371.5514029580454                                1369.072073493849
120                                               932.5418822267719                                 1143.42595720171                                  1389.8783700633185                                1389.9024416025222                                1385.917288246516                                 1383.7542501123198                                1381.2168742506992
123.62595192014955                                966.6951842248819                                 1164.426215601161                                 1398.4048800112482                                1397.9405089063598                                1393.7745405217083                                1391.5660213263086                                1388.9900809408573
