% Model:              batchmodel_BILLETTA_r_0.0445341_COIL_kr_1.4848_COIL_kw_5.3284_FUNZ_freq_7167.5_FUNZ_I_eff_85.0125.mph
% Version:            COMSOL 5.6.0.401
% Date:               Jan 27 2022, 13:26
% Table:              Tabella delle sonde 1 - 
% Tempo (s)                                       Temperatura (degC), Punto: (0, 0.5)               Temperatura (degC), Punto: (0.5*BILLETTA_r, 0.5)  Temperatura (degC), Punto: (BILLETTA_r-10*FUNZ_depth_billetta, 0.5)Temperatura (degC), Punto: (BILLETTA_r-5*FUNZ_depth_billetta, 0.5)Temperatura (degC), Punto: (BILLETTA_r-2*FUNZ_depth_billetta, 0.5)Temperatura (degC), Punto: (BILLETTA_r-FUNZ_depth_billetta, 0.5)Temperatura (degC), Punto: (BILLETTA_r-0.01[mm], 0.5)
0                                                 20                                                20                                                20.000000000257216                                20.001377655595718                                20.308407284111354                                20.612239890752335                                20.89499206661452
5                                                 20.711617346593812                                43.51155656111422                                 666.9970123858328                                 808.9466032277056                                 880.1794504330559                                 893.7005591083433                                 898.3311080747093
10                                                38.86039566054126                                 138.00391198259462                                1034.405687502685                                 1138.60267956984                                  1163.8224070041647                                1166.386890755307                                 1166.2333221002636
15                                                87.45789943259592                                 242.52905316589988                                1112.120142781775                                 1153.880268799167                                 1163.2771493975843                                1163.7419826329115                                1162.9155373422595
20                                                157.17581449235223                                336.6511096961275                                 1129.7991759606625                                1155.9150765706868                                1161.0602992169574                                1160.9392607261643                                1159.926436176073
25                                                231.5443442724645                                 417.4452326481137                                 1148.3972561287546                                1167.504187410702                                 1170.7346390385233                                1170.3264584485064                                1169.1990864053796
30                                                301.8161245520173                                 486.3409372910626                                 1164.5687125941895                                1178.8755048706898                                1180.7583290657117                                1180.1419376737376                                1178.9250983936904
35                                                366.33644587873573                                545.8523834822422                                 1180.2051532064434                                1191.5968995363623                                1192.6262118236418                                1191.8667439426508                                1190.5778717141798
40                                                424.1615792301627                                 598.2239446613237                                 1196.2613218466108                                1205.642228287178                                 1206.0660126572348                                1205.1967021484493                                1203.8441097302612
45                                                476.23320444200226                                644.3925933826439                                 1213.0603315473086                                1221.1505811453117                                1221.159878494896                                 1220.2052728166618                                1218.7943311539339
50                                                523.2269205328632                                 685.6212282629385                                 1231.0898637101723                                1238.2836740301705                                1237.9780573490652                                1236.9495410791528                                1235.481345389575
55                                                565.4017168754201                                 723.3780265961773                                 1250.647248486193                                 1257.2590176142662                                1256.7112477252863                                1255.6150734148596                                1254.0874705375036
60                                                603.3604410188077                                 759.7384874173518                                 1272.2740534850668                                1278.3708278348777                                1277.5800018746722                                1276.410593666088                                 1274.8160638326535
65                                                637.1564151534825                                 796.8583070715982                                 1295.5092045241913                                1301.1722795071473                                1300.1439406856443                                1298.89750251964                                  1297.2301236964745
70                                                667.1693254648166                                 838.0388884988939                                 1320.1791145504576                                1325.370530339358                                 1324.0769337794486                                1322.7450774992803                                1320.997643279231
75                                                693.0991729505213                                 880.8047402316237                                 1344.933101676906                                 1349.5741204379615                                1347.9896868657415                                1346.5679171153151                                1344.7377828290155
80                                                714.8400203149195                                 924.3757388615619                                 1368.2424479185424                                1372.144496947923                                 1370.2273499180724                                1368.7127329476984                                1366.8013721259244
82.42784100982475                                 723.9056900323894                                 945.9690887547209                                 1379.3263003876405                                1382.8221090363668                                1380.7313587887961                                1379.1703072550704                                1377.2192647568913
