% Model:              batchmodel_BILLETTA_r_0.0445341_COIL_kr_1.4848_COIL_kw_4.5299_FUNZ_freq_4639.7_FUNZ_I_eff_127.5152.mph
% Version:            COMSOL 5.6.0.401
% Date:               Jan 27 2022, 12:57
% Table:              Tabella delle sonde 1 - 
% Tempo (s)                                       Temperatura (degC), Punto: (0, 0.5)               Temperatura (degC), Punto: (0.5*BILLETTA_r, 0.5)  Temperatura (degC), Punto: (BILLETTA_r-10*FUNZ_depth_billetta, 0.5)Temperatura (degC), Punto: (BILLETTA_r-5*FUNZ_depth_billetta, 0.5)Temperatura (degC), Punto: (BILLETTA_r-2*FUNZ_depth_billetta, 0.5)Temperatura (degC), Punto: (BILLETTA_r-FUNZ_depth_billetta, 0.5)Temperatura (degC), Punto: (BILLETTA_r-0.01[mm], 0.5)
0                                                 20                                                20                                                20.000000001666706                                20.014250268936507                                20.395597936795184                                20.674127674565682                                20.938190329549684
5                                                 20.945930928587586                                54.188881371766                                   909.9832723743322                                 1126.4520907769129                                1184.0670638063866                                1190.9010130139459                                1191.841136754997
10                                                46.48311903264096                                 169.39531714888693                                1187.2183378458744                                1255.6869130576724                                1270.6744716322432                                1271.4598451867428                                1270.2100360005243
15                                                108.78758035887745                                285.77060008239744                                1248.9267910345407                                1284.1547647086868                                1290.3778442881862                                1289.901654448474                                 1288.1879183410738
20                                                186.84727602574918                                386.31106622822006                                1280.6804529492088                                1304.5263149928473                                1307.7921545395325                                1306.875545150292                                 1304.9729370893901
25                                                264.64462091244013                                473.9068818128534                                 1308.2050077931658                                1326.470487479076                                 1328.2388439049482                                1327.0725293483379                                1325.0333740975861
30                                                338.0377406807046                                 551.6893025972837                                 1339.309528498608                                 1354.593887876892                                 1355.476339539095                                 1354.125688255317                                 1351.9506811353099
35                                                406.2813361943945                                 622.1709879480757                                 1370.9663542346866                                1383.6056982122122                                1383.6505109606687                                1382.121826149511                                 1379.8088587537604
36.13509779395248                                 421.09603655558965                                637.2622104009511                                 1378.1465754481183                                1390.18955817495                                  1390.0407605750893                                1388.471560580605                                 1386.127068264153
