% Model:              batchmodel_BILLETTA_r_0.0445341_COIL_kr_1.9397_COIL_kw_3.7744_FUNZ_freq_6066_FUNZ_I_eff_162.3068.mph
% Version:            COMSOL 5.6.0.401
% Date:               Jan 27 2022, 16:06
% Table:              Tabella delle sonde 1 - 
% Tempo (s)                                       Temperatura (degC), Punto: (0, 0.5)               Temperatura (degC), Punto: (0.5*BILLETTA_r, 0.5)  Temperatura (degC), Punto: (BILLETTA_r-10*FUNZ_depth_billetta, 0.5)Temperatura (degC), Punto: (BILLETTA_r-5*FUNZ_depth_billetta, 0.5)Temperatura (degC), Punto: (BILLETTA_r-2*FUNZ_depth_billetta, 0.5)Temperatura (degC), Punto: (BILLETTA_r-FUNZ_depth_billetta, 0.5)Temperatura (degC), Punto: (BILLETTA_r-0.01[mm], 0.5)
0                                                 20                                                19.999999999999943                                20.00000002609073                                 20.06757669100449                                 20.76500016668888                                 21.208575617082374                                21.60355087423227
5                                                 21.17466289895009                                 66.62812805126003                                 1271.5002199317278                                1357.8155954840108                                1377.522270885921                                 1378.9318589701315                                1377.8365370033516
5.434506795270337                                 21.766682945602668                                76.86559546083527                                 1295.1901574735339                                1370.4481596515693                                1387.0232666777329                                1387.9769431403188                                1386.709318079199
