% Model:              batchmodel_BILLETTA_r_0.0445341_COIL_kr_2.4069_COIL_kw_3.2356_FUNZ_freq_8940.8_FUNZ_I_eff_85.0125.mph
% Version:            COMSOL 5.6.0.401
% Date:               Jan 27 2022, 17:32
% Table:              Tabella delle sonde 1 - 
% Tempo (s)                                       Temperatura (degC), Punto: (0, 0.5)               Temperatura (degC), Punto: (0.5*BILLETTA_r, 0.5)  Temperatura (degC), Punto: (BILLETTA_r-10*FUNZ_depth_billetta, 0.5)Temperatura (degC), Punto: (BILLETTA_r-5*FUNZ_depth_billetta, 0.5)Temperatura (degC), Punto: (BILLETTA_r-2*FUNZ_depth_billetta, 0.5)Temperatura (degC), Punto: (BILLETTA_r-FUNZ_depth_billetta, 0.5)Temperatura (degC), Punto: (BILLETTA_r-0.01[mm], 0.5)
0                                                 20                                                20                                                20.00000000062579                                 20.00233661856032                                 20.388769035116184                                20.767034205367338                                21.104504773885367
5                                                 21.01333022002393                                 46.618798348037444                                760.2500186865403                                 931.9537417555824                                 1008.7702652364063                                1021.3537554208345                                1025.2128880883197
10                                                40.48799549719308                                 143.53776334882002                                1067.2862921892947                                1136.074916197047                                 1153.4396518050153                                1155.1873230871233                                1154.9178225490991
15                                                93.77304435516174                                 247.5464170128921                                 1122.7666463576643                                1157.17698978491                                  1164.7917034700308                                1165.1008905365484                                1164.3311594629922
20                                                164.06951178756236                                336.5300796979442                                 1142.5728378211024                                1165.26940317848                                  1169.7430368370533                                1169.6073457711832                                1168.6829940085718
25                                                234.56518106209478                                412.84518253489                                   1160.859902020341                                 1177.51516003498                                  1180.3139862367175                                1179.9251540407472                                1178.897866931965
30                                                301.44826633661035                                480.04916413104036                                1178.60136738574                                  1191.4844919163475                                1193.206281367321                                 1192.643935917953                                 1191.535411953134
35                                                363.7363924566513                                 539.7056000435736                                 1196.9860818097263                                1207.5986882617444                                1208.6401813540729                                1207.9566620497503                                1206.779944115679
40                                                420.32789381880673                                592.1547945247152                                 1216.28595061559                                  1225.346382870509                                 1225.9018348181908                                1225.1228085747885                                1223.8846571157433
45                                                471.627513278426                                  638.4917841525007                                 1237.1522212766636                                1245.258827968294                                 1245.4814728043016                                1244.6248112138255                                1243.3271023542707
50                                                517.8958557760176                                 679.9588353838805                                 1260.315561347195                                 1267.7905648560686                                1267.751387230468                                 1266.821602976946                                 1265.4599010429697
55                                                559.9688412634891                                 717.8722887752011                                 1286.0459335810629                                1293.0085667932399                                1292.7173945114441                                1291.709582014667                                 1290.2758615835296
60                                                598.2472634150398                                 756.779951703153                                  1312.9753596450992                                1319.4081326689643                                1318.845346461308                                 1317.753172942832                                 1316.2416952657109
65                                                632.9818755295249                                 798.736465848472                                  1340.5806219375327                                1346.382021510734                                 1345.507615758348                                 1344.3228832896198                                1342.728340935073
70                                                664.0616960375767                                 842.8324618857779                                 1369.093292728122                                 1374.1989937154062                                1372.981985647927                                 1371.6973218021426                                1370.0142164408203
70.58649875684294                                 667.4678546201708                                 848.1451104178019                                 1372.4972839401976                                1377.5171644629213                                1376.2579389438756                                1374.9610700610287                                1373.2672159783046
