% Model:              batchmodel_BILLETTA_r_0.0445341_COIL_kr_1.9397_COIL_kw_5.3284_FUNZ_freq_4639.7_FUNZ_I_eff_61.5962.mph
% Version:            COMSOL 5.6.0.401
% Date:               Jan 27 2022, 16:39
% Table:              Tabella delle sonde 1 - 
% Tempo (s)                                       Temperatura (degC), Punto: (0, 0.5)               Temperatura (degC), Punto: (0.5*BILLETTA_r, 0.5)  Temperatura (degC), Punto: (BILLETTA_r-10*FUNZ_depth_billetta, 0.5)Temperatura (degC), Punto: (BILLETTA_r-5*FUNZ_depth_billetta, 0.5)Temperatura (degC), Punto: (BILLETTA_r-2*FUNZ_depth_billetta, 0.5)Temperatura (degC), Punto: (BILLETTA_r-FUNZ_depth_billetta, 0.5)Temperatura (degC), Punto: (BILLETTA_r-0.01[mm], 0.5)
0                                                 20                                                19.999999999999943                                20.000000000012562                                20.000052087756615                                20.106592173417653                                20.254243592514058                                20.415409336937444
5                                                 20.6456778021859                                  32.10260589263521                                 274.06055896185524                                326.3102791899564                                 359.0973407953504                                 366.61642214855294                                369.5743846999428
10                                                31.363244223428694                                84.31757368078831                                 476.96230897751707                                548.0138893192128                                 587.4272500269993                                 595.5591690481209                                 598.5635125574596
15                                                62.110333383206694                                155.31914632536603                                653.1842062044142                                 746.4005896729167                                 795.9942593506618                                 805.5467696695106                                 808.7437249174756
20                                                109.90164832719859                                231.2702172249837                                 824.3086461574065                                 946.2513414666956                                 1000.7146350585582                                1009.8565719027694                                1012.3553684333225
25                                                166.59397031655124                                305.36533535313606                                950.2088134310596                                 1044.8647218147476                                1075.12660909749                                  1078.8327438133174                                1079.0859765144405
30                                                225.89338189020214                                375.34631244627883                                1006.418459856572                                 1068.9511696136642                                1085.738027628795                                 1087.3778676545048                                1086.9056491510296
35                                                284.26767333295356                                438.44663433431685                                1037.9041115907376                                1082.269199587347                                 1093.2153917079754                                1093.9494280239865                                1093.1501017636551
40                                                340.01052792262715                                494.01171090796925                                1057.360248924901                                 1090.8818493327517                                1098.5857477089717                                1098.811948201428                                 1097.8258537269817
45                                                392.08603422845977                                542.5595945291016                                 1069.9148261684318                                1096.741805512092                                 1102.480090442381                                 1102.4146597666959                                1101.3218895221157
50                                                439.7866953999105                                 585.3716797321526                                 1080.3773148453974                                1102.2746082343951                                1106.512747040245                                 1106.2167959521862                                1105.03674675999
55                                                482.95501319234074                                623.0686732910865                                 1090.0207995612104                                1107.8178396378376                                1110.7844954276934                                1110.2877804560303                                1109.0294565872555
60                                                522.2780658718779                                 656.4585035460664                                 1098.3581376522811                                1112.938855734918                                 1114.9011543339484                                1114.2435168097022                                1112.9206806956722
65                                                558.0848640532438                                 686.0499125335172                                 1105.3609568511406                                1117.4922527614558                                1118.6947332990385                                1117.9148293223916                                1116.5414419445806
70                                                590.3928621794742                                 712.2845480921167                                 1111.4849360837507                                1121.740168693383                                 1122.3583455111243                                1121.4828551067312                                1120.0682314127503
75                                                619.4834198671716                                 736.060878073206                                  1117.2167450172506                                1125.8598356052685                                1125.9741070785653                                1125.0153829317273                                1123.563803648758
80                                                645.3849459017881                                 758.0088844261205                                 1122.5166238924999                                1129.8677093145739                                1129.5745134275767                                1128.5470314316644                                1127.0633918041563
85                                                668.479503402056                                  780.4815364404027                                 1127.858665335773                                 1134.0014326699793                                1133.3219213394818                                1132.2282018076999                                1130.712919926591
90                                                688.6200390042005                                 802.6400209391758                                 1133.06146855833                                  1138.1743014791673                                1137.1600153946638                                1136.0074152427214                                1134.462698275152
95                                                705.9391820174015                                 825.5724727110227                                 1138.2939707857404                                1142.488148474656                                 1141.1702251435436                                1139.9629050844833                                1138.3896733620995
100                                               720.480343948158                                  848.7193145977643                                 1143.4940642176311                                1146.9048440537586                                1145.321877482952                                 1144.0651813232885                                1142.4648326308452
105                                               733.2328667635775                                 871.1044383434049                                 1148.756150012663                                 1151.4744205654688                                1149.6531617850678                                1148.3507272140428                                1146.7239835836353
110                                               743.8115911526288                                 893.107851261765                                  1154.0434769903154                                1156.1773999873144                                1154.1492105998432                                1152.8053395127813                                1151.1531860528107
115                                               755.4051432364978                                 914.0766091496922                                 1159.4761165221335                                1161.077963248977                                 1158.8575439173246                                1157.4739386118185                                1155.7963345494632
120                                               766.8669375859255                                 934.2455016253485                                 1165.0108926195085                                1166.1530317843235                                1163.7610742126299                                1162.3403717653182                                1160.637645220319
125                                               781.8514244459262                                 953.6986111201574                                 1170.7557209376278                                1171.4770687806758                                1168.923569786782                                 1167.4666168771118                                1165.7382938354563
130                                               799.8468675741541                                 972.424192995204                                  1176.6954888890896                                1177.0396471171962                                1174.3361014320876                                1172.8439954927176                                1171.089714277211
135                                               821.7350321831856                                 990.6716452656752                                 1182.891830410916                                 1182.8885880889788                                1180.0420042810815                                1178.5150469938571                                1176.734031785621
140                                               847.7035741083145                                 1008.4800976906669                                1189.3556961098861                                1189.0322520050904                                1186.0487998511085                                1184.4871456811175                                1182.67854594854
145                                               874.6230529225651                                 1025.8142213307406                                1196.0841350090486                                1195.4586348531275                                1192.3427237836418                                1190.7465564772788                                1188.909836468857
150                                               900.8932637303197                                 1042.6860317792953                                1203.0843943711634                                1202.1678082715903                                1198.9221800693476                                1197.2915801233203                                1195.4263196657125
155                                               927.6227107199064                                 1059.0872055174837                                1210.3514538259365                                1209.1597226345993                                1205.7882743060381                                1204.1233937408383                                1202.2290925966586
160                                               954.8113938913251                                 1075.0177425453062                                1217.8853133733674                                1216.4343779421538                                1212.9410064937128                                1211.2419973298329                                1209.3181552616957
165                                               979.9953609627438                                 1090.065545571243                                 1225.6647849782125                                1223.9701802240793                                1220.3586255278024                                1218.6257083357132                                1216.6720100453813
170                                               1001.1071509426794                                1104.259500480865                                 1233.4921953566923                                1231.5582574745008                                1227.829480493528                                 1226.0628205760918                                1224.079424715475
175                                               1022.2189409226152                                1118.4534553904873                                1241.319605735172                                 1239.1463347249228                                1235.3003354592538                                1233.4999328164708                                1231.4868393855681
180                                               1043.3307309025508                                1132.6474103001092                                1249.1470161136517                                1246.7344119753448                                1242.77119042498                                  1240.93704505685                                  1238.8942540556618
185                                               1063.9599812579627                                1146.6628258404194                                1256.9602861884114                                1254.3108294243052                                1250.2311167960443                                1248.3633125858923                                1246.2908155974105
190                                               1080.9292832983997                                1159.324062717133                                 1264.6663054217024                                1261.7988100516213                                1257.608152375176                                 1255.7073255580717                                1253.6050587412915
195                                               1097.8985853388367                                1171.9852995938472                                1272.372324654993                                 1269.286790678938                                 1264.985187954307                                 1263.051338530252                                 1260.9193018851724
200                                               1114.8678873792742                                1184.6465364705614                                1280.078343888284                                 1276.7747713062545                                1272.3622235334383                                1270.3953515024318                                1268.2335450290534
205                                               1131.8371894197112                                1197.3077733472755                                1287.7843631215746                                1284.2627519335706                                1279.7392591125695                                1277.7393644746112                                1275.5477881729348
210                                               1146.54904888603                                  1208.8523457334963                                1295.215692029306                                 1291.4912965507524                                1286.8618356150787                                1284.8297617738608                                1282.6087962891502
215                                               1160.9060980612344                                1220.2214079838268                                1302.6038468800334                                1298.6790646860259                                1293.9444178780495                                1291.8802973943348                                1289.6300025539626
220                                               1175.2631472364392                                1231.5904702341572                                1309.9920017307609                                1305.8668328212998                                1301.0270001410204                                1298.9308330148092                                1296.651208818775
225                                               1189.6201964116435                                1242.9595324844877                                1317.3801565814879                                1313.0546009565733                                1308.1095824039912                                1305.9813686352827                                1303.6724150835876
230                                               1203.150597461562                                 1253.8852789135562                                1324.6216039006886                                1320.1017024642338                                1315.053601518206                                 1312.893724884092                                 1310.5556411324796
235                                               1215.7089156099678                                1264.2897155898572                                1331.6905329759616                                1326.9833894268972                                1321.83467963786                                  1319.6435914345288                                1317.2766116768335
240                                               1227.7117302442252                                1274.3962461933625                                1338.660875304562                                 1333.7705491008965                                1328.5226439963976                                1326.3006021201854                                1323.9048601880972
245                                               1239.1590413643348                                1284.2048707240715                                1345.5326308864887                                1340.4631814862314                                1335.1174945938187                                1332.864756941061                                 1330.4403866662701
250                                               1250.0508489702966                                1293.7155891819848                                1352.3057997217434                                1347.0612865829025                                1341.6192314301225                                1339.3360558971563                                1336.8831911113534
