% Model:              batchmodel_BILLETTA_r_0.0445341_COIL_kr_2.7711_COIL_kw_4.5299_FUNZ_freq_4639.7_FUNZ_I_eff_127.5152.mph
% Version:            COMSOL 5.6.0.401
% Date:               Jan 27 2022, 19:36
% Table:              Tabella delle sonde 1 - 
% Tempo (s)                                       Temperatura (degC), Punto: (0, 0.5)               Temperatura (degC), Punto: (0.5*BILLETTA_r, 0.5)  Temperatura (degC), Punto: (BILLETTA_r-10*FUNZ_depth_billetta, 0.5)Temperatura (degC), Punto: (BILLETTA_r-5*FUNZ_depth_billetta, 0.5)Temperatura (degC), Punto: (BILLETTA_r-2*FUNZ_depth_billetta, 0.5)Temperatura (degC), Punto: (BILLETTA_r-FUNZ_depth_billetta, 0.5)Temperatura (degC), Punto: (BILLETTA_r-0.01[mm], 0.5)
0                                                 20                                                20                                                20.000000001773685                                20.014606748307983                                20.39726146680829                                 20.677906016520637                                20.94410575086465
5                                                 20.926738158671185                                53.74184004182473                                 910.334399064213                                  1129.9505225719795                                1188.3077603901984                                1195.0972896677722                                1195.986026489299
10                                                40.82855283081892                                 168.5920189343774                                 1196.6487482882317                                1258.7702433820668                                1272.050865061864                                 1272.593100715474                                 1271.2599174961656
15                                                100.62231060271665                                289.09123303204785                                1254.5797254247077                                1286.6882248604647                                1292.0961516096372                                1291.5052323578225                                1289.7499476610446
20                                                182.4069209758074                                 395.09087731699924                                1285.9586556543563                                1307.5075681793442                                1310.1614347014433                                1309.1552667173055                                1307.2171691601143
25                                                265.3078902417732                                 486.7725034875739                                 1316.5030576229337                                1333.1831689788182                                1334.5021462375953                                1333.2592628616067                                1331.1779198094491
30                                                343.7213680608654                                 566.2407767167591                                 1349.1206069710092                                1363.4309014288647                                1364.0060144032304                                1362.593216500326                                 1360.373816596788
32.6514800511863                                  382.53491208724563                                604.1700174667253                                 1366.9374724351478                                1380.1380294083383                                1380.3333738558822                                1378.8316680763332                                1376.5368206682633
