% Model:              batchmodel_BILLETTA_r_0.0445341_COIL_kr_2.4069_COIL_kw_5.8583_FUNZ_freq_8940.8_FUNZ_I_eff_85.0125.mph
% Version:            COMSOL 5.6.0.401
% Date:               Jan 27 2022, 18:49
% Table:              Tabella delle sonde 1 - 
% Tempo (s)                                       Temperatura (degC), Punto: (0, 0.5)               Temperatura (degC), Punto: (0.5*BILLETTA_r, 0.5)  Temperatura (degC), Punto: (BILLETTA_r-10*FUNZ_depth_billetta, 0.5)Temperatura (degC), Punto: (BILLETTA_r-5*FUNZ_depth_billetta, 0.5)Temperatura (degC), Punto: (BILLETTA_r-2*FUNZ_depth_billetta, 0.5)Temperatura (degC), Punto: (BILLETTA_r-FUNZ_depth_billetta, 0.5)Temperatura (degC), Punto: (BILLETTA_r-0.01[mm], 0.5)
0                                                 20                                                19.999999999999943                                20.00000000062579                                 20.002336619327423                                20.38876906976691                                 20.76703425702101                                 21.104504837649415
5                                                 20.48505292462795                                 42.864978225241316                                740.8620458602096                                 905.2513655728159                                 986.7393769180561                                 1000.3556003331925                                1004.6849769310935
10                                                34.75656395808517                                 139.49497279312573                                1072.6597924240164                                1133.9291134346213                                1149.2499286070265                                1150.6939672887902                                1150.328421137625
15                                                84.87993408374052                                 247.4020433810722                                 1121.3999635009368                                1153.1626471934037                                1160.1135211188011                                1160.3417542743919                                1159.554789656749
20                                                157.56277065179785                                341.9457282136857                                 1145.9756487241912                                1167.2641487967321                                1171.340678506669                                 1171.1460905883946                                1170.1993842541433
25                                                233.36409045527785                                422.1012226067951                                 1164.9262014885621                                1180.3459217520272                                1182.7994832779736                                1182.3579602764125                                1181.3087114287514
30                                                305.24178454436174                                490.2702283732592                                 1182.5100576431582                                1194.8834184316124                                1196.4456156563642                                1195.8544826512398                                1194.730026897505
35                                                369.92359838665766                                549.8961631999672                                 1201.1364480677403                                1211.3373521359345                                1212.2508856834538                                1211.5433005985578                                1210.352419413352
40                                                427.7995020515217                                 601.9039849474572                                 1221.0997611707135                                1229.8755951034814                                1230.3400736858885                                1229.5416321322555                                1228.289618973094
45                                                479.404824193748                                  647.591156633061                                  1242.8280923233028                                1250.7393374461262                                1250.8891420888008                                1250.0136769387195                                1248.7001916392965
50                                                525.9900523850752                                 688.9139705881298                                 1266.9310460029214                                1274.2181348251638                                1274.0993720093838                                1273.1476053095225                                1271.7668999258244
55                                                567.7775360620172                                 726.7210453287503                                 1293.3748881263755                                1300.2137733723962                                1299.854348160844                                 1298.824413394148                                 1297.3699099869727
60                                                605.4632463168269                                 764.3393331352316                                 1321.8403571228137                                1328.1983858433705                                1327.5678443615843                                1326.4498910512539                                1324.9128592809275
65                                                639.1460513811306                                 804.4101700216805                                 1350.5434569098984                                1356.2865617549282                                1355.340942875896                                 1354.1274504401663                                1352.503781417538
69.8132033886676                                  668.0114788869741                                 847.6799792232147                                 1377.2030931586655                                1382.1155557313846                                1380.8032631020424                                1379.49036084696                                  1377.7818402741846
