% Model:              batchmodel_BILLETTA_r_0.0445341_COIL_kr_2.7711_COIL_kw_3.2356_FUNZ_freq_6066_FUNZ_I_eff_85.0125.mph
% Version:            COMSOL 5.6.0.401
% Date:               Jan 27 2022, 19:01
% Table:              Tabella delle sonde 1 - 
% Tempo (s)                                       Temperatura (degC), Punto: (0, 0.5)               Temperatura (degC), Punto: (0.5*BILLETTA_r, 0.5)  Temperatura (degC), Punto: (BILLETTA_r-10*FUNZ_depth_billetta, 0.5)Temperatura (degC), Punto: (BILLETTA_r-5*FUNZ_depth_billetta, 0.5)Temperatura (degC), Punto: (BILLETTA_r-2*FUNZ_depth_billetta, 0.5)Temperatura (degC), Punto: (BILLETTA_r-FUNZ_depth_billetta, 0.5)Temperatura (degC), Punto: (BILLETTA_r-0.01[mm], 0.5)
0                                                 20                                                19.999999999999943                                20.0000000001678                                  20.0009867147528                                  20.26027106642698                                 20.51997304221311                                 20.77021263859723
5                                                 20.777995738911216                                40.204440799978386                                549.1727368002078                                 661.6220568768939                                 721.5818226052236                                 734.094677666453                                  738.6372250171122
10                                                37.125881695070746                                126.71599315622677                                951.9882947761042                                 1086.2134701302616                                1123.2864936059696                                1127.5123320860407                                1127.8933189765162
15                                                85.24367269573241                                 227.58893075842832                                1066.6583931664459                                1127.801614138118                                 1142.367720267613                                 1143.5316584666452                                1142.8918117250787
20                                                151.59196372455722                                319.0704497611798                                 1111.267459447106                                 1147.6537907722332                                1155.3667771080854                                1155.536709792283                                 1154.5407451794
25                                                221.44535381748784                                396.3488923754286                                 1129.9974443506321                                1155.4727677271803                                1160.2397185305858                                1159.9885476115578                                1158.8437262427838
30                                                287.2541749207394                                 462.6790365338177                                 1145.548508001858                                 1164.6483960534529                                1167.6603158917856                                1167.1478280639626                                1165.9004335781724
35                                                347.9470274844948                                 520.6815819169954                                 1159.1192364233261                                1173.953393181996                                 1175.772529412578                                 1175.0758669554248                                1173.7494476541647
40                                                404.16434270795014                                573.0087447171965                                 1172.3920094139794                                1184.114000981635                                 1185.0430519833371                                1184.2019515346096                                1182.8066102541234
45                                                455.45820738962095                                619.6810246986147                                 1185.969892007749                                 1195.6409866252448                                1195.9554294397458                                1195.004754692167                                 1193.547776647718
50                                                502.29589302938166                                661.6998761251612                                 1199.9432539418099                                1208.0992578123642                                1207.9432864087153                                1206.9027625350668                                1205.389760539938
55                                                544.7310887756303                                 699.2005328064517                                 1214.3962260805529                                1221.5998377315477                                1221.122682937084                                 1220.0120038109485                                1218.4478630102144
60                                                583.342761659485                                  734.1503904034062                                 1230.2247268899582                                1236.6444773701578                                1235.8833972567472                                1234.7043604599871                                1233.086065561004
65                                                618.0445583982871                                 767.5933595999985                                 1247.28560115945                                  1253.156548187661                                 1252.1659037908307                                1250.9228607131454                                1249.2483329876572
70                                                649.0823189623269                                 803.7170467206673                                 1265.9352341702856                                1271.3307079882265                                1270.1149922954478                                1268.8040554195582                                1267.0672561653105
75                                                676.4218560726573                                 841.5042329879769                                 1286.0072679925047                                1290.9808020098749                                1289.539837809793                                 1288.15681189631                                  1286.3520512022633
80                                                700.1145598520837                                 881.4449017288672                                 1307.4726943915048                                1312.0065396674222                                1310.3194409936573                                1308.8571204987693                                1306.9777017450256
85                                                720.1109107345752                                 921.4168168620878                                 1329.657968752551                                 1333.7008389712646                                1331.7433375870046                                1330.195642859423                                 1328.2368167025406
90                                                736.4280607797922                                 961.149715127507                                  1352.4517944371132                                1355.9424874187898                                1353.6885011776367                                1352.0493580241323                                1350.006636408567
95                                                753.7774606420936                                 999.5080104357904                                 1372.4860288052364                                1375.2618403361307                                1372.6953651165968                                1370.9697352187459                                1368.8511849131473
98.89353181281851                                 767.0778676708709                                 1028.7084567069078                                1386.8588540164656                                1388.987363785062                                 1386.1649054907584                                1384.373206148528                                 1382.1986820562256
