% Model:              batchmodel_BILLETTA_r_0.0445341_COIL_kr_1.9397_COIL_kw_4.5299_FUNZ_freq_2540.9_FUNZ_I_eff_162.3068.mph
% Version:            COMSOL 5.6.0.401
% Date:               Jan 27 2022, 16:18
% Table:              Tabella delle sonde 1 - 
% Tempo (s)                                       Temperatura (degC), Punto: (0, 0.5)               Temperatura (degC), Punto: (0.5*BILLETTA_r, 0.5)  Temperatura (degC), Punto: (BILLETTA_r-10*FUNZ_depth_billetta, 0.5)Temperatura (degC), Punto: (BILLETTA_r-5*FUNZ_depth_billetta, 0.5)Temperatura (degC), Punto: (BILLETTA_r-2*FUNZ_depth_billetta, 0.5)Temperatura (degC), Punto: (BILLETTA_r-FUNZ_depth_billetta, 0.5)Temperatura (degC), Punto: (BILLETTA_r-0.01[mm], 0.5)
0                                                 20                                                20                                                20.00000000557594                                 20.026983153146375                                20.31720329616752                                 20.503455527233882                                20.692002140911427
5                                                 21.050914719553532                                55.89939399613638                                 813.8457778046646                                 1104.1657414168408                                1188.0755062243738                                1198.2828044764533                                1199.8406711160496
10                                                45.9779077816338                                  179.22298632455016                                1224.413893976478                                 1322.0439920090926                                1342.776578350487                                 1343.6542047419234                                1341.6078493237314
15                                                110.49166258916244                                309.1725954474663                                 1326.6325572474907                                1373.2945529492454                                1380.3403516150474                                1379.2034780679887                                1376.3569336900332
19.202335779570735                                181.3621695144201                                 409.55558927703044                                1364.127096830557                                 1393.9818480712543                                1396.7291160965615                                1394.9612239014205                                1391.8459457926633
