% Model:              batchmodel_BILLETTA_r_0.0445341_COIL_kr_2.4069_COIL_kw_4.5299_FUNZ_freq_6066_FUNZ_I_eff_61.5962.mph
% Version:            COMSOL 5.6.0.401
% Date:               Jan 27 2022, 18:02
% Table:              Tabella delle sonde 1 - 
% Tempo (s)                                       Temperatura (degC), Punto: (0, 0.5)               Temperatura (degC), Punto: (0.5*BILLETTA_r, 0.5)  Temperatura (degC), Punto: (BILLETTA_r-10*FUNZ_depth_billetta, 0.5)Temperatura (degC), Punto: (BILLETTA_r-5*FUNZ_depth_billetta, 0.5)Temperatura (degC), Punto: (BILLETTA_r-2*FUNZ_depth_billetta, 0.5)Temperatura (degC), Punto: (BILLETTA_r-FUNZ_depth_billetta, 0.5)Temperatura (degC), Punto: (BILLETTA_r-0.01[mm], 0.5)
0                                                 20                                                20                                                20.000000000022                                   20.000102774073298                                20.140954161833463                                20.33326396853022                                 20.532951555540023
5                                                 20.66044361450429                                 33.58572073671428                                 313.4217003664684                                 369.5647369959662                                 403.74422832248604                                411.31040820163264                                414.25272647142435
10                                                32.55748924369311                                 90.13151532319245                                 564.8560811779595                                 646.4714008016697                                 690.7222430810625                                 699.6512822155456                                 702.8628214223714
15                                                64.73944261678213                                 168.405456443603                                  782.2327853134044                                 902.1209665458883                                 960.2096108456639                                 970.375107550041                                  973.4807026331567
20                                                113.8194052519267                                 249.78207538442985                                952.0587455270794                                 1048.0805043563282                                1079.4610998590315                                1083.4079201157983                                1083.858377039899
25                                                173.54045660882974                                327.6603999607288                                 1021.2854468857357                                1078.205752038857                                 1092.846508096779                                 1094.1901795456315                                1093.7278202482812
30                                                236.813660198118                                  398.3845438901935                                 1049.101280766275                                 1088.0693551398035                                1097.6373836501325                                1098.254548631579                                 1097.5420252429403
35                                                298.8621943318234                                 460.5422354627989                                 1063.1653333959684                                1093.7184935291148                                1100.9963769575202                                1101.28244842714                                  1100.4531908886865
40                                                356.874489716311                                  514.5345114906098                                 1073.6495557411617                                1099.279267711565                                 1105.0668359606207                                1105.1218381103636                                1104.2058306175823
45                                                408.9937126240193                                 561.3677187900323                                 1087.3331470330631                                1107.2838806935702                                1111.2354102945615                                1111.0019065805327                                1109.9751930108241
50                                                456.1408155028413                                 602.3218820143481                                 1098.7368040475076                                1114.3141530548091                                1116.8605098181315                                1116.4046874413448                                1115.2908426667764
55                                                498.4172223628168                                 637.6169456962081                                 1107.420117561584                                 1120.0625573014281                                1121.6913302858757                                1121.0887939020995                                1119.9151500077282
60                                                536.7995585529782                                 669.1888181895483                                 1114.4735503265724                                1125.0651404179962                                1126.0630506130274                                1125.357882347143                                 1124.1402954815876
65                                                571.1568317023645                                 696.7711712120137                                 1120.1905943254815                                1129.4942153239017                                1130.106321842491                                 1129.3360436790872                                1128.0878724567274
70                                                602.1215015473797                                 721.6194355864932                                 1126.1076809286992                                1134.0819142998466                                1134.2816723150977                                1133.4418075089216                                1132.1611753203993
75                                                629.7448326721342                                 744.3816310409464                                 1132.0022478041774                                1138.7789249889092                                1138.5984472377536                                1137.6933307554345                                1136.3813299510216
80                                                654.3359449503675                                 766.295534274184                                  1138.22863125498                                  1143.8189290642022                                1143.249758921404                                 1142.2771568674143                                1140.9322369331599
85                                                676.2125072601564                                 788.9530120327864                                 1144.5095278627132                                1149.0771439344921                                1148.167316895352                                 1147.1338048714838                                1145.7575349183608
90                                                695.4669697802999                                 812.7896216303014                                 1150.8198215503398                                1154.5488788238445                                1153.354362599015                                 1152.2677315865271                                1150.8620829129513
95                                                712.018108871006                                  837.422696956139                                  1157.1815784644132                                1160.2382548913506                                1158.8080482119663                                1157.6750214003055                                1156.2416119562354
100                                               726.5883003753448                                 862.3217129328133                                 1163.671983132905                                 1166.18854875214                                  1164.561355019085                                 1163.3870640251912                                1161.926879857037
105                                               741.5570033924848                                 885.7391544197322                                 1170.5452763767921                                1172.5423107650572                                1170.7229212301877                                1169.5072551345647                                1168.0192008394938
110                                               755.345155631065                                  908.8347115595237                                 1177.632738299409                                 1179.2049413228433                                1177.2206520987916                                1175.9669790464077                                1174.451340517871
115                                               767.9527570910851                                 931.6083843521875                                 1184.9343689007565                                1186.1764404254977                                1184.0545476248958                                1182.76623576072                                  1181.2232988921678
120                                               788.7504352937186                                 952.8532991997737                                 1193.10997490392                                  1194.0469531514668                                1191.7905682672204                                1190.4666244207756                                1188.8943110488744
125                                               812.819536455506                                  973.6133863071517                                 1201.555756253264                                 1202.1748321403356                                1199.7787605336575                                1198.4180397135242                                1196.8155229119252
130                                               836.888637617293                                  994.3734734145297                                 1210.0015376026076                                1210.302711129205                                 1207.7669528000952                                1206.369455006272                                 1204.736734774976
135                                               861.6071072345547                                 1014.7711742621808                                1218.648394940395                                 1218.6418089326062                                1215.9686755303937                                1214.5344895278467                                1212.871303593282
140                                               888.7313470169075                                 1033.8263121249206                                1228.0401954762015                                1227.7634269185396                                1224.9614826057436                                1223.4909372495363                                1221.796313944652
145                                               915.8555867992601                                 1052.8814499876598                                1237.4319960120083                                1236.8850449044735                                1233.9542896810926                                1232.4473849712267                                1230.7213242960215
150                                               942.9798265816129                                 1071.9365878503995                                1246.8237965478152                                1246.0066628904065                                1242.9470967564425                                1241.4038326929162                                1239.6463346473915
155                                               967.5056045242676                                 1089.3658067237247                                1256.3016752263466                                1255.2316799323357                                1252.0471538356328                                1250.467546076478                                 1248.6779496983436
160                                               990.8804254425673                                 1106.0748445833015                                1265.8176811698236                                1264.5024963267865                                1261.1947159977913                                1259.5787714785415                                1257.7567840026013
165                                               1014.2552463608669                                1122.7838824428786                                1275.3336871133001                                1273.7733127212373                                1270.3422781599493                                1268.6899968806051                                1266.835618306859
170                                               1037.6300672791667                                1139.4929203024558                                1284.8496930567771                                1283.0441291156876                                1279.4898403221077                                1277.8012222826683                                1275.9144526111172
175                                               1061.0048881974658                                1156.201958162032                                 1294.3656990002537                                1292.3149455101388                                1288.6374024842657                                1286.912447684732                                 1284.9932869153745
180                                               1081.2376961606078                                1171.3897383108792                                1303.580530562106                                 1301.2994772435877                                1297.5030190402013                                1295.742263126081                                 1293.7907428855374
185                                               1100.0787877528928                                1185.9036958846655                                1312.6619605997216                                1310.1572026732024                                1306.2437512237711                                1304.4474314527179                                1302.4635657496137
190                                               1118.9198793451774                                1200.4176534584522                                1321.7433906373376                                1319.0149281028175                                1314.9844834073406                                1313.1525997793547                                1311.13638861369
195                                               1137.7609709374624                                1214.9316110322393                                1330.8248206749531                                1327.8726535324322                                1323.72521559091                                  1321.8577681059915                                1319.8092114777664
200                                               1156.6020625297474                                1229.445568606026                                 1339.906250712569                                 1336.7303789620478                                1332.4659477744794                                1330.5629364326282                                1328.4820343418428
205                                               1172.8172759137342                                1242.3263288014073                                1347.8837898148936                                1344.507821347806                                 1340.139504084556                                 1338.2046647117863                                1336.094580175763
210                                               1187.8693885268076                                1254.4836841092829                                1355.3723738720887                                1351.8067655164177                                1347.3403678389614                                1345.3753551739073                                1343.2374892126454
215                                               1202.9215011398805                                1266.641039417158                                 1362.8609579292838                                1359.10570968503                                  1354.5412315933672                                1352.5460456360283                                1350.3803982495283
220                                               1217.973613752954                                 1278.7983947250332                                1370.349541986479                                 1366.4046538536418                                1361.7420953477726                                1359.7167360981489                                1357.5233072864107
225                                               1233.0257263660274                                1290.9557500329088                                1377.838126043674                                 1373.703598022254                                 1368.9429591021785                                1366.88742656027                                  1364.6662163232932
226.53484722044522                                1237.646265007228                                 1294.6876866333605                                1380.1368925287252                                1375.9441508561295                                1371.1534042458297                                1369.0886094251618                                1366.8588711395237
