% Model:              batchmodel_BILLETTA_r_0.0445341_COIL_kr_2.4069_COIL_kw_5.8583_FUNZ_freq_6066_FUNZ_I_eff_174.7421.mph
% Version:            COMSOL 5.6.0.401
% Date:               Jan 27 2022, 18:43
% Table:              Tabella delle sonde 1 - 
% Tempo (s)                                       Temperatura (degC), Punto: (0, 0.5)               Temperatura (degC), Punto: (0.5*BILLETTA_r, 0.5)  Temperatura (degC), Punto: (BILLETTA_r-10*FUNZ_depth_billetta, 0.5)Temperatura (degC), Punto: (BILLETTA_r-5*FUNZ_depth_billetta, 0.5)Temperatura (degC), Punto: (BILLETTA_r-2*FUNZ_depth_billetta, 0.5)Temperatura (degC), Punto: (BILLETTA_r-FUNZ_depth_billetta, 0.5)Temperatura (degC), Punto: (BILLETTA_r-0.01[mm], 0.5)
0                                                 20                                                20                                                20.000000046803336                                20.0905545221255                                  20.855583706596633                                21.3255335202021                                  21.743135960907694
4.011346307832781                                 20.294209676358378                                46.58860043785347                                 1266.4425189602312                                1372.3736743167583                                1396.453553061469                                 1398.3715599192774                                1397.3957364037078
