% Model:              batchmodel_BILLETTA_r_0.0335556_COIL_kr_1.9397_COIL_kw_5.3284_FUNZ_freq_8940.8_FUNZ_I_eff_127.5152.mph
% Version:            COMSOL 5.6.0.280
% Date:               Jan 27 2022, 18:58
% Table:              Tabella delle sonde 1 - 
% Tempo (s)                                       Temperatura (degC), Punto: (0, 0.5)               Temperatura (degC), Punto: (0.5*BILLETTA_r, 0.5)  Temperatura (degC), Punto: (BILLETTA_r-10*FUNZ_depth_billetta, 0.5)Temperatura (degC), Punto: (BILLETTA_r-5*FUNZ_depth_billetta, 0.5)Temperatura (degC), Punto: (BILLETTA_r-2*FUNZ_depth_billetta, 0.5)Temperatura (degC), Punto: (BILLETTA_r-FUNZ_depth_billetta, 0.5)Temperatura (degC), Punto: (BILLETTA_r-0.01[mm], 0.5)
0                                                 20                                                20                                                20.000000012171938                                20.033118624029328                                20.77461622595939                                 21.306047927305997                                21.751771427119195
5                                                 35.5512427888886                                  141.89196656402788                                1178.5158153041039                                1252.2111381948362                                1269.565480152975                                 1271.0542697122255                                1270.4819652213896
10                                                144.73009689428784                                347.5120374441916                                 1289.655856195196                                 1315.406805013747                                 1320.2463701074967                                1319.9344211645598                                1318.6804687579165
15                                                289.9975617747906                                 512.2509020016971                                 1353.6674023900568                                1371.3510264185743                                1373.977998526861                                 1373.2775113415764                                1371.7913902102537
16.2013045534698                                  323.25461799777406                                546.1705352161279                                 1368.8055720645348                                1385.1764838448244                                1387.3908584697338                                1386.6122835964206                                1385.073728600782
