% Model:              batchmodel_BILLETTA_r_0.0335556_COIL_kr_2.7711_COIL_kw_5.3284_FUNZ_freq_4639.7_FUNZ_I_eff_127.5152.mph
% Version:            COMSOL 5.6.0.280
% Date:               Jan 27 2022, 20:47
% Table:              Tabella delle sonde 1 - 
% Tempo (s)                                       Temperatura (degC), Punto: (0, 0.5)               Temperatura (degC), Punto: (0.5*BILLETTA_r, 0.5)  Temperatura (degC), Punto: (BILLETTA_r-10*FUNZ_depth_billetta, 0.5)Temperatura (degC), Punto: (BILLETTA_r-5*FUNZ_depth_billetta, 0.5)Temperatura (degC), Punto: (BILLETTA_r-2*FUNZ_depth_billetta, 0.5)Temperatura (degC), Punto: (BILLETTA_r-FUNZ_depth_billetta, 0.5)Temperatura (degC), Punto: (BILLETTA_r-0.01[mm], 0.5)
0                                                 20                                                19.999999999999943                                20.000000001878277                                20.015022122036953                                20.39746625934555                                 20.67627225919597                                 20.94012536674171
5                                                 32.41823541821509                                 121.34864950277444                                938.7056882951007                                 1145.6591926623119                                1197.737003580712                                 1203.6049256471051                                1204.1709244919798
10                                                130.02842330171978                                319.8752839237892                                 1207.1803035405014                                1260.7417314487702                                1271.5984798249438                                1271.7895323404896                                1270.34049296568
15                                                270.79678299928196                                485.5651150719741                                 1261.8909576228566                                1288.550185131036                                 1292.4524178307593                                1291.645070619476                                 1289.817155519242
20                                                399.8448030945592                                 616.0069665609824                                 1296.8765037611943                                1314.0784663720015                                1315.522350503743                                 1314.3319963746162                                1312.3186140151497
25                                                508.1516500165719                                 723.8276536060264                                 1334.9074494030742                                1348.587308265196                                 1349.0100503251606                                1347.6046672332627                                1345.4291248727468
28.91275946733363                                 580.7204126086891                                 810.574509409894                                  1367.6058762755242                                1379.2669899738721                                1379.0152087524834                                1377.4506598370644                                1375.1385443097702
