% Model:              batchmodel_BILLETTA_r_0.0335556_COIL_kr_1.4848_COIL_kw_3.2356_FUNZ_freq_4639.7_FUNZ_I_eff_61.5962.mph
% Version:            COMSOL 5.6.0.280
% Date:               Jan 27 2022, 16:08
% Table:              Tabella delle sonde 1 - 
% Tempo (s)                                       Temperatura (degC), Punto: (0, 0.5)               Temperatura (degC), Punto: (0.5*BILLETTA_r, 0.5)  Temperatura (degC), Punto: (BILLETTA_r-10*FUNZ_depth_billetta, 0.5)Temperatura (degC), Punto: (BILLETTA_r-5*FUNZ_depth_billetta, 0.5)Temperatura (degC), Punto: (BILLETTA_r-2*FUNZ_depth_billetta, 0.5)Temperatura (degC), Punto: (BILLETTA_r-FUNZ_depth_billetta, 0.5)Temperatura (degC), Punto: (BILLETTA_r-0.01[mm], 0.5)
0                                                 20                                                19.999999999999943                                20.00000000000591                                 20.000020517301664                                20.052920675094754                                20.173123484153393                                20.302239326047243
5                                                 23.355871222655765                                52.2583608148754                                  273.79601091665893                                325.23757944914666                                356.692198016726                                  363.6646448909212                                 366.39886144336117
10                                                59.965475021102975                                147.27710457526638                                482.52460492480736                                549.4689887198314                                 583.5117915633492                                 590.7072764335041                                 593.406127778184
15                                                138.43126627751008                                256.1131018294535                                 690.0326134506888                                 789.9252515367547                                 844.1260785724254                                 854.4219140721408                                 857.7457425129224
20                                                231.87911832548917                                366.1247870435752                                 879.6227073652673                                 999.4395465230092                                 1046.560829155269                                 1053.7524260744558                                1055.3839167023802
25                                                324.13357617980125                                466.1183795051835                                 994.2199420617789                                 1065.416013955226                                 1083.7727518872107                                1085.6074278714113                                1085.2048941589665
30                                                408.95578562800756                                550.320020708253                                  1036.7110676815505                                1081.512813430446                                 1092.7925796883364                                1093.5329968642427                                1092.7292571172225
35                                                483.2123308263318                                 618.780414839995                                  1061.2420703700755                                1092.2977336659455                                1099.1716663516372                                1099.2713060343158                                1098.2409405181138
40                                                547.7615407035266                                 675.0319416040106                                 1078.1622022809483                                1100.7798675670574                                1105.146367457664                                 1104.8641953070978                                1103.6907632543844
45                                                603.280790094827                                  721.6457931092889                                 1091.6990704626214                                1108.38934762007                                  1110.9574596878747                                1110.3956492574812                                1109.1142120161107
50                                                650.0382207177503                                 764.2911888938405                                 1102.890342381134                                 1115.2725286638492                                1116.527230869986                                 1115.7579185443747                                1114.3931303819045
55                                                688.0404161537565                                 802.957206573362                                  1111.7526285401054                                1121.4419273665449                                1121.8658458369214                                1120.9607115530794                                1119.5370670426737
60                                                717.7796077897847                                 842.4382033659793                                 1120.2694596302545                                1127.57732422341                                  1127.2599002899392                                1126.2321859665021                                1124.753945074759
65                                                740.7307912606447                                 880.7710256984286                                 1127.9571173089616                                1133.5395247227225                                1132.6733199822738                                1131.5514134675254                                1130.027995773918
70                                                764.2372684435164                                 916.4307292682487                                 1135.5721449538946                                1139.6787129754202                                1138.3348979149464                                1137.1287804940816                                1135.5628581614328
75                                                793.9403039821026                                 948.8308568474278                                 1143.034504502346                                 1146.0558063768726                                1144.3466298101725                                1143.0720615486584                                1141.4679355144922
80                                                833.5477770881581                                 979.204073495914                                  1150.6363841038187                                1152.6816529713233                                1150.6374789378337                                1149.2982620840626                                1147.6564241855685
85                                                875.2658934157129                                 1007.7100074219376                                1158.767901263523                                 1159.9820086863392                                1157.641210084541                                 1156.2413766737077                                1154.5612115348354
90                                                918.219257843126                                  1035.1231193061662                                1167.2093873373274                                1167.6771189960818                                1165.0621534585348                                1163.6040632280701                                1161.885210701691
95                                                952.5843280611274                                 1057.8935556137085                                1176.9715045459006                                1176.886290237876                                 1174.0443028353502                                1172.5309642860907                                1170.7698233797341
100                                               985.095783462344                                  1079.6619614797414                                1187.018654076286                                 1186.4222418284485                                1183.363407899561                                 1181.7954703573896                                1179.9912638674773
105                                               1017.6072388635602                                1101.4303673457744                                1197.065803606672                                 1195.9581934190214                                1192.6825129637723                                1191.059976428688                                 1189.21270435522
110                                               1048.5069208499244                                1122.455079611529                                 1207.2845141293124                                1205.6906176283314                                1202.2058887320095                                1200.529930124177                                 1198.6398798058663
115                                               1073.187260837116                                 1140.6101051085957                                1218.165226193059                                 1216.1811697470266                                1212.5174828422587                                1210.7926435376148                                1208.8609237269138
120                                               1097.8676008243074                                1158.7651306056619                                1229.0459382568047                                1226.6717218657222                                1222.8290769525074                                1221.055356951052                                 1219.081967647961
125                                               1122.2397390511337                                1176.7686506444034                                1239.9178736936096                                1237.1578455133713                                1233.1375273959607                                1231.3150982088923                                1229.3000783623866
130                                               1141.883042715634                                 1192.447575759163                                 1250.655146639288                                 1247.5760217654056                                1243.3977435912457                                1241.5292367677212                                1239.4731839839224
135                                               1161.5263463801339                                1208.1265008739224                                1261.3924195849663                                1257.9941980174399                                1253.6579597865307                                1251.7433753265495                                1249.646289605459
140                                               1181.1696500446342                                1223.8054259886817                                1272.1296925306442                                1268.4123742694742                                1263.9181759818161                                1261.9575138853784                                1259.8193952269953
145                                               1197.7234311434968                                1237.6765394037348                                1282.3334623796113                                1278.3391320590326                                1273.7006561043986                                1271.6962833584903                                1269.5182983803184
150                                               1213.9959457229993                                1251.3830717569463                                1292.4886627309002                                1288.221151686771                                 1283.4396436939164                                1281.3917757862623                                1279.174030695795
155                                               1230.2684603025018                                1265.0896041101587                                1302.6438630821885                                1298.103171314509                                 1293.1786312834342                                1291.0872682140343                                1288.829763011271
160                                               1245.4828823504508                                1278.1207182988846                                1312.4881743064666                                1307.6887325144503                                1302.6262967945518                                1300.492469539212                                 1298.1958484256893
165                                               1259.764545282179                                 1290.5564191079684                                1322.0584219127682                                1317.0129514471873                                1311.817147975844                                 1309.6417653889898                                1307.3065962591395
170                                               1273.346249843682                                 1302.5453115486575                                1331.423007499753                                 1326.14105467948                                  1320.8152812982285                                1318.599025399743                                 1316.2257344112436
175                                               1286.2279960349592                                1314.087395620952                                 1340.5819310674224                                1335.0730422113293                                1329.6206967617045                                1327.3642495714703                                1324.9532628820011
180                                               1298.409783856012                                 1325.1826713248515                                1349.535192615776                                 1343.8089140427346                                1338.2333943662725                                1335.9374379041724                                1333.4891816714135
185                                               1310.0373367876568                                1335.4694399313562                                1357.5932097759928                                1351.6748582610348                                1345.990131713579                                 1343.6588705446802                                1341.177127623209
190                                               1321.0659396647911                                1345.0586884845188                                1364.9675804957874                                1358.8776336586675                                1353.0944243467602                                1350.7309821451936                                1348.2185053891026
195                                               1331.45999681565                                  1354.0387686292693                                1371.8267481002658                                1365.5818313333712                                1359.7082815630097                                1357.314921555701                                 1354.7736438834045
200                                               1341.2195082402327                                1362.4096803656075                                1378.1707125894272                                1371.7874512851463                                1365.8317033623298                                1363.4106887762018                                1360.8425431061146
205                                               1350.34447393854                                  1370.171423693535                                 1383.999473963273                                 1377.494493513992                                 1371.4646897447187                                1369.0182838066962                                1366.4252030572325
206.1403589860397                                 1352.3367567711962                                1371.8563478981628                                1385.2566988006292                                1378.7262859381499                                1372.6807324021888                                1370.2288523648704                                1367.6303553211897
