% Model:              batchmodel_BILLETTA_r_0.0335556_COIL_kr_1.4848_COIL_kw_5.3284_FUNZ_freq_6066_FUNZ_I_eff_162.3068.mph
% Version:            COMSOL 5.6.0.280
% Date:               Jan 27 2022, 16:48
% Table:              Tabella delle sonde 1 - 
% Tempo (s)                                       Temperatura (degC), Punto: (0, 0.5)               Temperatura (degC), Punto: (0.5*BILLETTA_r, 0.5)  Temperatura (degC), Punto: (BILLETTA_r-10*FUNZ_depth_billetta, 0.5)Temperatura (degC), Punto: (BILLETTA_r-5*FUNZ_depth_billetta, 0.5)Temperatura (degC), Punto: (BILLETTA_r-2*FUNZ_depth_billetta, 0.5)Temperatura (degC), Punto: (BILLETTA_r-FUNZ_depth_billetta, 0.5)Temperatura (degC), Punto: (BILLETTA_r-0.01[mm], 0.5)
0                                                 20                                                20                                                20.000000027318208                                20.068441527494656                                20.764919204928958                                21.205456129672996                                21.5969978338253
5                                                 38.09543903841296                                 158.6534781889818                                 1277.1684559284677                                1356.4865198643788                                1374.2773240946995                                1375.415036845361                                 1374.2367340480864
6.034449615715412                                 54.71169069607589                                 208.54861093589312                                1322.961233668187                                 1380.1944374716609                                1391.925773807715                                 1392.1917343318864                                1390.685318535087
