% Model:              batchmodel_BILLETTA_r_0.0335556_COIL_kr_1.4848_COIL_kw_5.8583_FUNZ_freq_6066_FUNZ_I_eff_61.5962.mph
% Version:            COMSOL 5.6.0.280
% Date:               Jan 27 2022, 16:59
% Table:              Tabella delle sonde 1 - 
% Tempo (s)                                       Temperatura (degC), Punto: (0, 0.5)               Temperatura (degC), Punto: (0.5*BILLETTA_r, 0.5)  Temperatura (degC), Punto: (BILLETTA_r-10*FUNZ_depth_billetta, 0.5)Temperatura (degC), Punto: (BILLETTA_r-5*FUNZ_depth_billetta, 0.5)Temperatura (degC), Punto: (BILLETTA_r-2*FUNZ_depth_billetta, 0.5)Temperatura (degC), Punto: (BILLETTA_r-FUNZ_depth_billetta, 0.5)Temperatura (degC), Punto: (BILLETTA_r-0.01[mm], 0.5)
0                                                 20                                                20                                                20.000000000009038                                20.000034741429488                                20.071376437151798                                20.22686298305007                                 20.39022770511582
5                                                 23.560650505343688                                57.48372740968233                                 338.53825796474234                                397.6310396083185                                 432.5004344985001                                 440.0396560765904                                 442.9409070536841
10                                                67.19291261603007                                 166.42774273349306                                604.1862051075059                                 684.5005762850475                                 726.2954144955098                                 734.4355866332304                                 737.2816746175988
15                                                155.65473544606112                                289.5001167985396                                 840.9896709285655                                 966.0670419341037                                 1019.7519278057597                                1028.4440347379577                                1030.8106566044685
20                                                257.25529934410554                                405.2602680948585                                 993.7219603577354                                 1066.6072991966535                                1086.7488603740026                                1088.9125740119416                                1088.737070957261
25                                                353.76064138244715                                503.5756380368522                                 1040.5823670820923                                1083.9771019188306                                1094.8670817816264                                1095.6801560098406                                1095.0392862989597
30                                                438.55540279638194                                582.5921581945976                                 1066.803957246378                                 1095.8988682799877                                1102.5021007467708                                1102.671531707425                                 1101.7978847430913
35                                                511.29364845671626                                646.163497352044                                  1084.5672135735044                                1105.4136908659138                                1109.5375581543908                                1109.326891174449                                 1108.3106839851052
40                                                573.6912424611251                                 698.6887038971998                                 1098.5813833651932                                1113.799168849665                                 1116.2202572062724                                1115.7448928210333                                1114.6255572481996
45                                                626.2510685868831                                 743.8304933199004                                 1110.3209730796316                                1121.5839339947497                                1122.7940062826392                                1122.1259310267774                                1120.9277002375375
50                                                669.1584613194997                                 783.0586299919167                                 1120.1645102160523                                1128.886631217329                                 1129.3007671729656                                1128.5007058472947                                1127.2439535958501
55                                                703.2991903857568                                 824.248385252621                                  1129.51369132645                                  1136.1220069998085                                1135.8700989103913                                1134.957731710183                                 1133.6489379791524
60                                                730.0413138517151                                 864.4042352720675                                 1138.3044482183504                                1143.3588291010492                                1142.6063275254428                                1141.6059055240326                                1140.2527816927027
65                                                751.4775936919253                                 902.8156746014109                                 1147.0608144423604                                1150.866597725188                                 1149.70106713823                                  1148.6248316285873                                1147.2306005943033
70                                                776.6417963105263                                 938.5760166561807                                 1156.1172152682416                                1158.8986754290354                                1157.3828206893545                                1156.238802487358                                 1154.804714299888
75                                                806.7995150752771                                 971.7701560623058                                 1165.5503361663195                                1167.5117087728158                                1165.702087045977                                 1164.497295726348                                 1163.0241277006212
80                                                847.5600437810941                                 1003.1803884371926                                1175.7124111998942                                1176.9746903810924                                1174.9023018270123                                1173.6394387833325                                1172.1258863881221
85                                                893.7098908771849                                 1032.8988475321325                                1186.629936201096                                 1187.3069747317177                                1185.0003693315143                                1183.68168535527                                  1182.1261999590774
90                                                941.5666865329503                                 1061.253313345463                                 1198.468799353203                                 1198.6324976779338                                1196.1070584454537                                1194.7325561363841                                1193.1324919624285
95                                                978.290124100161                                  1085.4319125726101                                1211.7064993685945                                1211.449263415485                                 1208.7297284385572                                1207.3019491857167                                1205.656715124965
100                                               1013.3335983349624                                1109.1760090027055                                1225.0641905950947                                1224.3915893539006                                1221.4796728055535                                1219.998880744652                                 1218.308559467183
105                                               1048.377072569764                                 1132.9201054328014                                1238.421881821595                                 1237.3339152923159                                1234.2296171725498                                1232.6958123035874                                1230.9604038094012
110                                               1078.9272233844117                                1154.930111875361                                 1251.816328371423                                 1250.3445726019013                                1247.0564579338884                                1245.4704589558482                                1243.6896740339607
115                                               1106.0558909634137                                1175.6196792427272                                1265.2387626067175                                1263.4072614745564                                1259.9418521754737                                1258.3042824943705                                1256.4779009223676
120                                               1133.1845585424162                                1196.3092466100934                                1278.6611968420125                                1276.4699503472107                                1272.827246417059                                 1271.1381060328927                                1269.2661278107748
125                                               1157.4473688029384                                1215.5017717970377                                1291.7372293122448                                1289.2109646172476                                1285.3984317455315                                1283.6588348655628                                1281.7416285102172
130                                               1179.956662736944                                 1233.7783100337851                                1304.6013108431703                                1301.7551576206147                                1297.777363797636                                 1295.987992165722                                 1294.0257831595468
135                                               1202.4659566709493                                1252.0548482705321                                1317.4653923740957                                1314.2993506239814                                1310.1562958497407                                1308.3171494658814                                1306.3099378088768
140                                               1222.7795264162983                                1269.0350887827171                                1329.7683473619554                                1326.3031743804986                                1322.0027908879547                                1320.1155465274014                                1318.064422595733
145                                               1242.0266553218826                                1285.385730713664                                 1341.7987689119204                                1338.0445463061483                                1333.5906866999321                                1331.6561587553201                                1329.5616521335692
150                                               1261.2737842274669                                1301.736372644611                                 1353.829190461886                                 1349.785918231798                                 1345.1785825119105                                1343.196770983238                                 1341.0588816714053
155                                               1279.0521275094097                                1316.75818797082                                  1364.6255994389549                                1360.3257857053127                                1355.5817567827817                                1353.5573727940478                                1351.3801401865876
160                                               1295.3246698491416                                1330.417688524034                                 1374.1568971124689                                1369.633869243191                                 1364.7703529803512                                1362.708226382039                                 1360.4957916714302
165                                               1310.4952817497647                                1343.080260416939                                 1382.7623986763056                                1378.040545314098                                 1373.0701327931465                                1370.973798022721                                 1368.7291916932181
170                                               1324.5639632112798                                1354.7459036495343                                1390.4421041304654                                1385.5458139180323                                1380.4810962211677                                1378.3540877160935                                1376.0803402519514
175                                               1337.530714233686                                 1365.4146182218205                                1397.1960134749474                                1392.1496750549945                                1387.0032432644152                                1384.8490954621566                                1382.54923734763
176.371117571285                                  1340.893982871035                                 1368.1660561963295                                1398.886347443089                                 1393.8031232411272                                1388.6364833254825                                1386.4755107949677                                1384.169021985143
