% Model:              batchmodel_BILLETTA_r_0.0335556_COIL_kr_1.6756_COIL_kw_5.8583_FUNZ_freq_7167.5_FUNZ_I_eff_174.7421.mph
% Version:            COMSOL 5.6.0.280
% Date:               Jan 27 2022, 18:05
% Table:              Tabella delle sonde 1 - 
% Tempo (s)                                       Temperatura (degC), Punto: (0, 0.5)               Temperatura (degC), Punto: (0.5*BILLETTA_r, 0.5)  Temperatura (degC), Punto: (BILLETTA_r-10*FUNZ_depth_billetta, 0.5)Temperatura (degC), Punto: (BILLETTA_r-5*FUNZ_depth_billetta, 0.5)Temperatura (degC), Punto: (BILLETTA_r-2*FUNZ_depth_billetta, 0.5)Temperatura (degC), Punto: (BILLETTA_r-FUNZ_depth_billetta, 0.5)Temperatura (degC), Punto: (BILLETTA_r-0.01[mm], 0.5)
0                                                 20                                                19.999999999999943                                20.000000081957126                                20.109041400713522                                21.013279821773097                                21.563180108124698                                22.03598426163302
3.402961264191913                                 23.392358078219388                                91.50308238792877                                 1273.2065215267735                                1371.643290706083                                 1393.8276042994526                                1395.6342845528284                                1394.7675826400487
