% Model:              batchmodel_BILLETTA_r_0.0335556_COIL_kr_1.9397_COIL_kw_4.5299_FUNZ_freq_7167.5_FUNZ_I_eff_61.5962.mph
% Version:            COMSOL 5.6.0.280
% Date:               Jan 27 2022, 18:40
% Table:              Tabella delle sonde 1 - 
% Tempo (s)                                       Temperatura (degC), Punto: (0, 0.5)               Temperatura (degC), Punto: (0.5*BILLETTA_r, 0.5)  Temperatura (degC), Punto: (BILLETTA_r-10*FUNZ_depth_billetta, 0.5)Temperatura (degC), Punto: (BILLETTA_r-5*FUNZ_depth_billetta, 0.5)Temperatura (degC), Punto: (BILLETTA_r-2*FUNZ_depth_billetta, 0.5)Temperatura (degC), Punto: (BILLETTA_r-FUNZ_depth_billetta, 0.5)Temperatura (degC), Punto: (BILLETTA_r-0.01[mm], 0.5)
0                                                 20                                                19.999999999999943                                20.000000000035243                                20.000166072856757                                20.168280621214308                                20.393953601297255                                20.62016766089272
5                                                 25.74248178250224                                 64.66444346715593                                 391.2093179882861                                 455.5015375748087                                 492.3765951589627                                 500.0460817777646                                 502.9578316646936
10                                                74.93308203784926                                 183.6329481248997                                 690.011284678383                                  787.0003137716857                                 838.886226701196                                  848.8190809987497                                 852.1464464195211
15                                                171.43561415938535                                314.352131849389                                  924.1342242694074                                 1031.9174278757669                                1071.6425319085297                                1077.3180805231746                                1078.4955604630627
20                                                276.6672035750786                                 429.18041862231473                                1022.6461808619989                                1076.6494043278199                                1091.0156612238825                                1092.4145999196326                                1092.0560516196424
25                                                372.664374619201                                  523.5197680194168                                 1059.7155465247706                                1092.9425060788067                                1100.9711415367597                                1101.4187505573586                                1100.720660549161
30                                                455.7207952130966                                 598.6582871450307                                 1080.3726251371518                                1103.7990374101173                                1108.8647434076024                                1108.8600486256264                                1107.994634036179
35                                                526.5057346934527                                 659.3756051610605                                 1095.5489331196636                                1112.6778229774168                                1115.8476637246786                                1115.551080574518                                 1114.5741128067057
40                                                586.5998985076174                                 709.3950615739136                                 1108.6620170227284                                1121.3173384255483                                1123.1203514295712                                1122.6076189125524                                1121.5436135361383
45                                                636.7694193284262                                 751.9521331288116                                 1119.8361670218478                                1129.3643534221583                                1130.1981698158074                                1129.5281784058716                                1128.397243300631
50                                                677.5252297035131                                 791.6882931830825                                 1129.767177761234                                 1137.1326508079615                                1137.2841146059986                                1136.4993018686314                                1135.3156123401754
55                                                709.4819701905288                                 831.9131272651317                                 1139.09143463601                                  1144.8692970008656                                1144.5112775632092                                1143.6373313324357                                1142.4091930194359
60                                                733.8441277289725                                 872.0513744511258                                 1148.71876461671                                  1153.1390289683677                                1152.337048834966                                 1151.3826239178275                                1150.111617503832
65                                                755.106232010592                                  910.5670633499218                                 1158.6877702017                                   1162.0276620337322                                1160.8595109317744                                1159.8347433496701                                1158.522699597299
70                                                779.8473431350282                                 946.333924413184                                  1169.371255244917                                 1171.875914615665                                 1170.407114487327                                 1169.319558388389                                 1167.9666729731484
75                                                822.3374020258813                                 979.7892656064624                                 1181.1370500968687                                1182.9921045587207                                1181.2702580826312                                1180.1242533591071                                1178.7289180357548
80                                                865.7878486956589                                 1012.5975389471633                                1193.3751485332982                                1194.6176421294972                                1192.6521921140416                                1191.4484390326807                                1190.0100173240103
85                                                912.2171597368161                                 1043.3987819880144                                1207.078205553279                                 1207.823038934384                                 1205.6432744293447                                1204.3839450291061                                1202.900462754154
90                                                955.1658699298997                                 1072.5071898137312                                1221.2404643798022                                1221.5193461821123                                1219.132744752088                                 1217.8182783615357                                1216.2891365987193
95                                                990.9874185261382                                 1098.149210466162                                 1236.3430222017128                                1236.2208816098114                                1233.6427549247005                                1232.274051148764                                 1230.698023497503
100                                               1026.8089671223765                                1123.7912311185928                                1251.4455800236233                                1250.92241703751                                  1248.152765097314                                 1246.729823935993                                 1245.1069103962868
105                                               1062.6305157186148                                1149.4332517710232                                1266.5481378455338                                1265.6239524652087                                1262.662775269927                                 1261.1855967232214                                1259.5157972950701
110                                               1094.6641378011254                                1173.3439053434122                                1281.4922321368836                                1280.1906011714723                                1277.0439397543437                                1275.5129780135758                                1273.795911726012
115                                               1122.8603575660336                                1195.5005776752755                                1296.2757931345623                                1294.620601340449                                 1291.2945756393524                                1289.7102908282413                                1287.945571734264
120                                               1151.0565773309418                                1217.6572500071388                                1311.0593541322419                                1309.050601509426                                 1305.5452115243615                                1303.9076036429065                                1302.0952317425158
125                                               1178.2139419736504                                1239.2062313103133                                1325.5780449487638                                1323.223624290526                                 1319.5421638441817                                1317.8519672482967                                1315.9924379553668
130                                               1201.9413680698017                                1258.7488280472899                                1339.2222264860102                                1336.5481970525238                                1332.7015412026108                                1330.9611804802867                                1329.0561294792437
135                                               1225.6687941659534                                1278.2914247842664                                1352.8664080232566                                1349.8727698145226                                1345.8609185610403                                1344.0703937122767                                1342.1198210031207
140                                               1249.396220262105                                 1297.834021521243                                 1366.5105895605034                                1363.1973425765204                                1359.0202959194694                                1357.179606944267                                 1355.1835125269977
145                                               1267.2821236526997                                1312.58150947768                                  1375.2610262164617                                1371.728926370562                                 1367.4443695836271                                1365.5703715040008                                1363.543567567268
150                                               1284.9760519076217                                1327.1714115262785                                1383.8506353990206                                1380.1029939220452                                1375.712822767478                                 1373.8060695049476                                1371.7490428348292
155                                               1302.6699801625432                                1341.761313574877                                 1392.4402445815804                                1388.4770614735276                                1383.9812759513284                                1382.0417675058948                                1379.9545181023905
156.48052617991564                                1307.9092449639352                                1346.081459963948                                 1394.983672835585                                 1390.9566667219979                                1386.4296082325482                                1384.480400805951                                 1382.3842022928457
