% Model:              batchmodel_BILLETTA_r_0.0335556_COIL_kr_2.4069_COIL_kw_3.7744_FUNZ_freq_8940.8_FUNZ_I_eff_85.0125.mph
% Version:            COMSOL 5.6.0.280
% Date:               Jan 27 2022, 19:32
% Table:              Tabella delle sonde 1 - 
% Tempo (s)                                       Temperatura (degC), Punto: (0, 0.5)               Temperatura (degC), Punto: (0.5*BILLETTA_r, 0.5)  Temperatura (degC), Punto: (BILLETTA_r-10*FUNZ_depth_billetta, 0.5)Temperatura (degC), Punto: (BILLETTA_r-5*FUNZ_depth_billetta, 0.5)Temperatura (degC), Punto: (BILLETTA_r-2*FUNZ_depth_billetta, 0.5)Temperatura (degC), Punto: (BILLETTA_r-FUNZ_depth_billetta, 0.5)Temperatura (degC), Punto: (BILLETTA_r-0.01[mm], 0.5)
0                                                 20                                                20                                                20.000000000639375                                20.00237155683658                                 20.389156959167394                                20.76617473836808                                 21.10195968958982
5                                                 30.3787423532047                                  99.41431723222695                                 798.0905445383099                                 968.9211671950496                                 1039.5152945192208                                1050.5580551876928                                1053.769756709824
10                                                115.85413598568817                                270.1769186665731                                 1076.7399802572813                                1136.9401247550354                                1151.5972092184961                                1152.9166075870066                                1152.5021965123242
15                                                237.073133971503                                  412.2652918964932                                 1129.3290324539798                                1158.151750380126                                 1164.220209351226                                 1164.310637252072                                 1163.4697519556103
20                                                345.70717814269494                                518.2335124256354                                 1152.6815530839112                                1171.2142584198791                                1174.4919972851467                                1174.1758385954795                                1173.1826837290441
25                                                438.9558864881809                                 604.2049954266258                                 1174.2636004797287                                1187.2309076611436                                1188.9541477018952                                1188.3956125527561                                1187.295675365824
30                                                519.5547478825181                                 676.69023621268                                   1197.452488354882                                 1207.2458702051163                                1208.0368568364115                                1207.316368850602                                 1206.1285502928376
35                                                588.8136152064891                                 740.2617048207564                                 1223.0513251263478                                1231.074977776504                                 1231.298010488526                                 1230.4608649680094                                1229.1937473004236
40                                                646.6068019573588                                 801.2924000718148                                 1251.7511640482276                                1258.8231581199207                                1258.6808353370434                                1257.748494149088                                 1256.401814464732
45                                                693.2790053902478                                 868.8622359948637                                 1284.7404280241408                                1291.1463338282524                                1290.6810560017902                                1289.6492693178652                                1288.2110699238724
50                                                727.8449202341259                                 938.1914045093152                                 1321.9121300428314                                1327.63729565296                                  1326.803856474643                                 1325.6555198041056                                1324.1095334439092
55                                                760.7609876703319                                 1004.9581683969135                                1359.2903684885623                                1364.0463702927009                                1362.7563842744153                                1361.4774900563953                                1359.8167462897245
56.606067535039315                                771.0027076706139                                 1025.8521908400671                                1371.3334193552791                                1375.716267092837                                 1374.2607559792614                                1372.936951811871                                 1371.2378818595967
