% Model:              batchmodel_BILLETTA_r_0.0335556_COIL_kr_1.4848_COIL_kw_3.7744_FUNZ_freq_6066_FUNZ_I_eff_61.5962.mph
% Version:            COMSOL 5.6.0.280
% Date:               Jan 27 2022, 16:23
% Table:              Tabella delle sonde 1 - 
% Tempo (s)                                       Temperatura (degC), Punto: (0, 0.5)               Temperatura (degC), Punto: (0.5*BILLETTA_r, 0.5)  Temperatura (degC), Punto: (BILLETTA_r-10*FUNZ_depth_billetta, 0.5)Temperatura (degC), Punto: (BILLETTA_r-5*FUNZ_depth_billetta, 0.5)Temperatura (degC), Punto: (BILLETTA_r-2*FUNZ_depth_billetta, 0.5)Temperatura (degC), Punto: (BILLETTA_r-FUNZ_depth_billetta, 0.5)Temperatura (degC), Punto: (BILLETTA_r-0.01[mm], 0.5)
0                                                 20                                                19.999999999999886                                20.000000000009038                                20.000034741433183                                20.071376442110136                                20.226862969775937                                20.39022769754996
5                                                 23.56007351939087                                 57.47598562235663                                 338.32241770710164                                397.3442840144173                                 432.1811928860533                                 439.7097256538865                                 442.606900985901
10                                                66.52220974234359                                 165.9349709834923                                 598.8198040530348                                 685.1841851167546                                 732.2871842581584                                 741.4811333999334                                 744.689322895124
15                                                155.53659158369493                                288.40320667954086                                848.5112281371429                                 980.8361440220423                                 1035.043387872336                                 1043.711321860948                                 1046.0372631544851
20                                                257.11142662672967                                405.37105875762256                                994.422826766738                                  1066.0343276564636                                1085.728154126075                                 1087.8421143761852                                1087.6579627261522
25                                                353.38725779375784                                503.95076895960017                                1041.8675852345332                                1084.571849499373                                 1095.2146098221824                                1095.9895616959025                                1095.3348590320766
30                                                438.48671532274534                                582.9359891612407                                 1066.8800807348416                                1096.0227479613                                   1102.6522305016993                                1102.8248387390654                                1101.9518685703665
35                                                511.4417443548458                                 646.3418603861927                                 1083.9628807093904                                1105.0671303607646                                1109.2833101545907                                1109.0876006373996                                1108.0770647427594
40                                                573.6519609905688                                 698.3406055328389                                 1097.8553656108852                                1113.390197632254                                 1115.9109470332487                                1115.4512299399225                                1114.3378602725966
45                                                625.9442497166593                                 742.1522289066202                                 1109.5348580884634                                1121.1008750332298                                1122.4021595082509                                1121.7482287326943                                1120.5555730720216
50                                                668.7467075878247                                 781.713549209066                                  1119.4667343708493                                1128.3446168461332                                1128.8076260920952                                1128.0157677447692                                1126.7628291349638
55                                                702.7366170018074                                 821.7085200825319                                 1128.4861222327409                                1135.354197515353                                 1135.1846656155294                                1134.285939833489                                 1132.9832309305689
60                                                728.477652560478                                  861.3390397696204                                 1137.2459299860138                                1142.4839905186277                                1141.7920303085148                                1140.802322184058                                 1139.4545964312847
65                                                749.6300304386442                                 899.393493401528                                  1145.8945522613085                                1149.8631505695134                                1148.752845945699                                 1147.6868298590325                                1146.2981381958753
70                                                772.4315715319309                                 934.5820503828639                                 1154.8859703719595                                1157.846068595251                                 1156.3896332774848                                1155.2564946067773                                1153.8282572649487
75                                                815.4911719004934                                 965.9312357666098                                 1164.9126548664185                                1167.1549154244044                                1165.430195783666                                 1164.2384274701158                                1162.7700123229974
80                                                858.5507722690558                                 997.2804211503554                                 1174.939339360877                                 1176.4637622535583                                1174.4707582898468                                1173.2203603334538                                1171.7117673810462
85                                                901.3321096391588                                 1028.159266401934                                 1185.240097839498                                 1186.0722092141573                                1183.8171343145632                                1182.50843374523                                  1180.9590418642847
90                                                942.2325299236737                                 1055.8588503233004                                1197.3934577864366                                1197.70580148405                                  1195.2306550017101                                1193.865862376122                                 1192.2714730877278
95                                                983.0526839686241                                 1083.5181916837532                                1209.5555730034407                                1209.349085371507                                 1206.6541216472597                                1205.2332669082439                                1203.5938817553201
100                                               1012.8769574167083                                1105.6646001210079                                1222.9170954027695                                1222.3200491167145                                1219.4401109624987                                1217.9672960557582                                1216.283126406779
105                                               1042.7012308647927                                1127.811008558262                                 1236.2786178020979                                1235.291012861922                                 1232.2261002777377                                1230.7013252032716                                1228.9723710582384
110                                               1072.5255043128768                                1149.9574169955163                                1249.6401402014262                                1248.2619766071298                                1245.0120895929767                                1243.435354350785                                 1241.6616157096973
115                                               1102.349777760961                                 1172.103825432771                                 1263.0016626007546                                1261.2329403523372                                1257.7980789082162                                1256.1693834982989                                1254.3508603611563
120                                               1127.5117543765032                                1191.828137330639                                 1276.050252050286                                 1273.9362555568682                                1270.329365764649                                 1268.6502487729954                                1266.786941174641
125                                               1151.2334774296287                                1210.8042272051862                                1289.0021718084759                                1286.5568901046258                                1282.7819712035684                                1281.052907922514                                 1279.144815873712
130                                               1174.9552004827533                                1229.7803170797329                                1301.9540915666657                                1299.177524652384                                 1295.2345766424878                                1293.4555670720324                                1291.5026905727832
135                                               1197.1508456915703                                1247.8562884201642                                1314.5937303675723                                1311.5002963486259                                1307.394298068184                                 1305.566272856548                                 1303.5691223633407
140                                               1216.5994370746253                                1264.3119793325673                                1326.6712401777359                                1323.2868927187778                                1319.0268064476859                                1317.1514408310068                                1315.1109352035542
145                                               1236.0480284576797                                1280.7676702449708                                1338.7487499878994                                1335.0734890889307                                1330.6593148271872                                1328.7366088054655                                1326.6527480437685
150                                               1255.4966198407346                                1297.2233611573738                                1350.826259798063                                 1346.8600854590836                                1342.291823206689                                 1340.3217767799242                                1338.1945608839824
155                                               1271.536912533646                                 1310.89239087349                                  1360.2889983779742                                1356.097661546737                                 1351.4105524525048                                1349.4031011779125                                1347.2409230178077
160                                               1287.3988599820727                                1324.4156036241552                                1369.6149144382862                                1365.2018556491812                                1360.3977437684216                                1358.35340754157                                  1356.1567062890417
165                                               1303.2608074304999                                1337.93881637482                                  1378.9408304985986                                1374.3060497516249                                1369.3849350843393                                1367.3037139052267                                1365.0724895602762
167.2829150256694                                 1310.5031030637783                                1344.1132854915836                                1383.1988852790423                                1378.4628700542412                                1373.4883339030735                                1371.3902716816146                                1369.1432846793787
