% Model:              batchmodel_BILLETTA_r_0.0335556_COIL_kr_2.4069_COIL_kw_5.3284_FUNZ_freq_6066_FUNZ_I_eff_127.5152.mph
% Version:            COMSOL 5.6.0.280
% Date:               Jan 27 2022, 19:52
% Table:              Tabella delle sonde 1 - 
% Tempo (s)                                       Temperatura (degC), Punto: (0, 0.5)               Temperatura (degC), Punto: (0.5*BILLETTA_r, 0.5)  Temperatura (degC), Punto: (BILLETTA_r-10*FUNZ_depth_billetta, 0.5)Temperatura (degC), Punto: (BILLETTA_r-5*FUNZ_depth_billetta, 0.5)Temperatura (degC), Punto: (BILLETTA_r-2*FUNZ_depth_billetta, 0.5)Temperatura (degC), Punto: (BILLETTA_r-FUNZ_depth_billetta, 0.5)Temperatura (degC), Punto: (BILLETTA_r-0.01[mm], 0.5)
0                                                 20                                                20                                                20.00000000322632                                 20.020485405876002                                20.521607004177042                                20.885523412029897                                21.21434236065062
5                                                 34.83272528717208                                 130.80280570634994                                1059.3852752453085                                1193.808587936965                                 1226.9967224762468                                1230.5558605179526                                1230.5094277522985
10                                                142.59824437012094                                328.04390498555597                                1233.6737945671562                                1275.4601275411587                                1283.8780260648623                                1283.8922643742053                                1282.5598728196933
15                                                277.772469526952                                  485.91293916018117                                1287.9198506183202                                1311.0874337817854                                1314.6126819168599                                1313.89726966321                                  1312.2567025855833
20                                                398.8426171690048                                 611.6022306113108                                 1330.8066213572429                                1347.6710703448111                                1349.4856837866405                                1348.4690693086818                                1346.6472413387842
25                                                504.2117936029334                                 720.9517724191704                                 1376.69910473048                                  1389.527801545471                                 1390.1166947076813                                1388.8529257999758                                1386.8506223776149
25.793077229613807                                519.6879772760196                                 737.4097972975026                                 1383.5373701491972                                1395.646388918245                                 1396.0165421860352                                1394.7119497222998                                1392.6816424828958
