% Model:              batchmodel_BILLETTA_r_0.0335556_COIL_kr_2.7711_COIL_kw_5.3284_FUNZ_freq_6066_FUNZ_I_eff_162.3068.mph
% Version:            COMSOL 5.6.0.280
% Date:               Jan 27 2022, 20:50
% Table:              Tabella delle sonde 1 - 
% Tempo (s)                                       Temperatura (degC), Punto: (0, 0.5)               Temperatura (degC), Punto: (0.5*BILLETTA_r, 0.5)  Temperatura (degC), Punto: (BILLETTA_r-10*FUNZ_depth_billetta, 0.5)Temperatura (degC), Punto: (BILLETTA_r-5*FUNZ_depth_billetta, 0.5)Temperatura (degC), Punto: (BILLETTA_r-2*FUNZ_depth_billetta, 0.5)Temperatura (degC), Punto: (BILLETTA_r-FUNZ_depth_billetta, 0.5)Temperatura (degC), Punto: (BILLETTA_r-0.01[mm], 0.5)
0                                                 20                                                19.999999999999886                                20.000000025047427                                20.067347660895337                                20.763322337691363                                21.20561919317936                                 21.597037558682644
5                                                 33.589830993048224                                155.0368841014801                                 1296.8016396802468                                1371.1214662693083                                1387.2751902201617                                1388.1504032828939                                1386.8536407411593
5.259431672829852                                 36.88465177150317                                 167.93365817051966                                1308.1641216187495                                1376.698557888103                                 1391.2562304962366                                1391.9059595590734                                1390.5256578177582
