% Model:              batchmodel_BILLETTA_r_0.0335556_COIL_kr_2.7711_COIL_kw_3.2356_FUNZ_freq_6066_FUNZ_I_eff_127.5152.mph
% Version:            COMSOL 5.6.0.280
% Date:               Jan 27 2022, 20:15
% Table:              Tabella delle sonde 1 - 
% Tempo (s)                                       Temperatura (degC), Punto: (0, 0.5)               Temperatura (degC), Punto: (0.5*BILLETTA_r, 0.5)  Temperatura (degC), Punto: (BILLETTA_r-10*FUNZ_depth_billetta, 0.5)Temperatura (degC), Punto: (BILLETTA_r-5*FUNZ_depth_billetta, 0.5)Temperatura (degC), Punto: (BILLETTA_r-2*FUNZ_depth_billetta, 0.5)Temperatura (degC), Punto: (BILLETTA_r-FUNZ_depth_billetta, 0.5)Temperatura (degC), Punto: (BILLETTA_r-0.01[mm], 0.5)
0                                                 20                                                20                                                20.00000000322632                                 20.020485391997454                                20.521606913660094                                20.885523291080744                                21.214342212780025
5                                                 32.58347087168761                                 129.23214581344075                                1074.1649313277117                                1205.1079830822869                                1236.7710533056102                                1240.0805168019274                                1239.930293538841
10                                                141.5658534375761                                 327.85423482274973                                1234.7606845036448                                1276.27495831559                                  1284.617041780878                                 1284.6191834739666                                1283.2811347472966
15                                                277.327507054581                                  486.01360608576726                                1287.880535701056                                 1310.99643760752                                  1314.508304359233                                 1313.7912690568228                                1312.150437954067
20                                                398.7042311636517                                 611.7138407196836                                 1330.908333008891                                 1347.75963934113                                  1349.569920962344                                 1348.5524897279433                                1346.7301848869934
25                                                504.24118909762717                                721.0419785714614                                 1376.8058533098424                                1389.6248263553466                                1390.2102890845044                                1388.9459349546187                                1386.9432189335803
25.733116350789512                                518.5701888962137                                 736.2492049877703                                 1383.1543000935799                                1395.308273120419                                 1395.6910370266032                                1394.3888137858198                                1392.3601018510753
