% Model:              batchmodel_BILLETTA_r_0.0335556_COIL_kr_1.4848_COIL_kw_5.3284_FUNZ_freq_6066_FUNZ_I_eff_61.5962.mph
% Version:            COMSOL 5.6.0.280
% Date:               Jan 27 2022, 16:47
% Table:              Tabella delle sonde 1 - 
% Tempo (s)                                       Temperatura (degC), Punto: (0, 0.5)               Temperatura (degC), Punto: (0.5*BILLETTA_r, 0.5)  Temperatura (degC), Punto: (BILLETTA_r-10*FUNZ_depth_billetta, 0.5)Temperatura (degC), Punto: (BILLETTA_r-5*FUNZ_depth_billetta, 0.5)Temperatura (degC), Punto: (BILLETTA_r-2*FUNZ_depth_billetta, 0.5)Temperatura (degC), Punto: (BILLETTA_r-FUNZ_depth_billetta, 0.5)Temperatura (degC), Punto: (BILLETTA_r-0.01[mm], 0.5)
0                                                 20                                                20                                                20.00000000000898                                 20.00003474143034                                 20.071376438310892                                20.22686297995773                                 20.39022770335805
5                                                 23.560709101669772                                57.48452133787134                                 338.60162458106015                                397.72834579733217                                432.6188573584949                                 440.1618034249233                                 443.06420820840583
10                                                67.1982820031966                                  166.46367756153563                                604.8887893793923                                 685.2990936973412                                 727.3675830856126                                 735.6414284899912                                 738.5391197317044
15                                                155.69448442719107                                289.6433519135994                                 841.824317335189                                  966.9712183275586                                 1020.5530929339826                                1029.1988948674457                                1031.5442991875248
20                                                257.3499806427852                                 405.44638470949474                                993.615088149296                                  1066.4368350052891                                1086.5657679790602                                1088.7267327176692                                1088.5512651496742
25                                                353.9019651343965                                 503.75225091550146                                1044.0071924089893                                1087.6730487981317                                1098.630873967561                                 1099.4381349656                                   1098.7847320471024
30                                                438.7077121910487                                 582.8297288012976                                 1067.745228817199                                 1096.4738425435316                                1102.9381374060426                                1103.084472847525                                 1102.202000952709
35                                                511.12863621007057                                645.6955687384686                                 1083.7877341085996                                1104.8657948525092                                1109.0679358627563                                1108.8705041152693                                1107.8598706540238
40                                                572.9457117905845                                 697.2931086471859                                 1096.9856635893248                                1112.8453062837661                                1115.4725586308327                                1115.0294583747882                                1113.9225660573816
45                                                625.0640703579531                                 740.1281064596963                                 1108.7760267443514                                1120.6804425285031                                1122.0832486617219                                1121.4446060423975                                1120.2577064269763
50                                                668.2789444100384                                 781.9086273448064                                 1119.2087093220648                                1128.1105678415788                                1128.5827068941512                                1127.7927599745171                                1126.5409577247756
55                                                702.5513908180518                                 821.5194528162793                                 1128.484963367414                                 1135.3019600370808                                1135.1170212757725                                1134.2161997772073                                1132.912941652949
60                                                728.425867361007                                  861.4924446356846                                 1137.3889241353781                                1142.5699738313942                                1141.859653058587                                 1140.8670727090894                                1139.5182343852498
65                                                750.8964675637709                                 899.8001904916629                                 1146.1955134756154                                1150.1066675887373                                1148.9770381451212                                1147.9076334736287                                1146.5172979570839
70                                                773.0862503153991                                 935.7843578070673                                 1155.1876455246133                                1158.0793224101385                                1156.6010359502561                                1155.4642080593758                                1154.0342871927069
75                                                811.9657274423381                                 968.4064038389009                                 1164.7564006881985                                1166.855293689649                                 1165.089839599133                                 1163.8927893282284                                1162.423540004765
80                                                853.5683243115021                                 1000.0814627159724                                1174.8374352934893                                1176.2139204638952                                1174.1789412029257                                1172.9230059894307                                1171.4133689157893
85                                                899.7517384240665                                 1030.1635049435927                                1185.7802235938598                                1186.552687147473                                 1184.277860766766                                 1182.9652904406657                                1181.4134836792718
90                                                939.386538935472                                  1056.732594336831                                 1198.1303441308623                                1198.4085665166026                                1195.9211034699401                                1194.5537603625994                                1192.9577787881026
95                                                976.4010994986855                                 1081.896076388825                                 1211.0435683064961                                1210.8714750229974                                1208.1822627931879                                1206.7608920630996                                1205.1199333820896
100                                               1013.4156600618988                                1107.0595584408188                                1223.9567924821304                                1223.3343835293922                                1220.443422116436                                 1218.9680237636003                                1217.2820879760766
105                                               1047.165064266997                                 1130.8090604474664                                1237.0952991970225                                1236.051120054125                                 1232.9660800481079                                1231.4374101783274                                1229.7062808176224
110                                               1075.955327173007                                 1152.411000111033                                 1250.575966538197                                 1249.1533722695485                                1245.8859038139572                                1244.3051108057793                                1242.528459100868
115                                               1104.745590079017                                 1174.0129397745995                                1264.056633879371                                 1262.2556244849716                                1258.805727579806                                 1257.172811433231                                 1255.3506373841146
120                                               1131.3265707763003                                1194.4826742959553                                1277.3497651803118                                1275.190562828372                                 1271.5641106008588                                1269.8798463617754                                1268.0122836829687
125                                               1154.7482959807903                                1213.3333647221884                                1290.3747214772338                                1287.8862437029352                                1284.0916346769836                                1282.3571306546733                                1280.4443705568406
130                                               1178.1700211852808                                1232.184055148421                                 1303.3996777741554                                1300.5819245774978                                1296.6191587531075                                1294.8344149475706                                1292.8764574307133
135                                               1200.2129413501011                                1250.2247887505291                                1316.1413320581523                                1313.0070642567407                                1308.880540038483                                 1307.0463870321169                                1305.0436993091248
140                                               1220.3982981641188                                1267.1743266658364                                1328.5013142266034                                1325.0677235382109                                1320.7833665753988                                1318.9009233512174                                1316.8541348639028
145                                               1240.5836549781366                                1284.1238645811432                                1340.861296395054                                 1337.128382819681                                 1332.686193112314                                 1330.755459670318                                 1328.6645704186813
150                                               1258.1847369133593                                1298.9171979125304                                1351.309137446573                                 1347.3242709488604                                1342.749407536326                                 1340.7776645488084                                1338.648954270618
155                                               1272.504011138457                                 1310.972336136973                                 1359.3287230861456                                1355.152059463163                                 1350.4764721701958                                1348.4729654672587                                1346.3144088915174
160                                               1286.823285363554                                 1323.0274743614154                                1367.3483087257187                                1362.9798479774663                                1358.2035368040656                                1356.1682663857086                                1353.9798635124166
165                                               1301.1425595886512                                1335.0826125858575                                1375.3678943652908                                1370.8076364917692                                1365.9306014379358                                1363.863567304159                                 1361.6453181333159
170                                               1315.4618338137489                                1347.1377508103                                   1383.3874800048634                                1378.6354250060717                                1373.6576660718056                                1371.5588682226094                                1369.3107727542151
172.7972737004454                                 1323.4728196536148                                1353.8820550323935                                1387.8740752044728                                1383.0147183948138                                1377.9806090081993                                1375.8640407978478                                1373.5992476768147
