% Model:              batchmodel_BILLETTA_r_0.0335556_COIL_kr_2.4069_COIL_kw_4.5299_FUNZ_freq_7167.5_FUNZ_I_eff_174.7421.mph
% Version:            COMSOL 5.6.0.280
% Date:               Jan 27 2022, 19:42
% Table:              Tabella delle sonde 1 - 
% Tempo (s)                                       Temperatura (degC), Punto: (0, 0.5)               Temperatura (degC), Punto: (0.5*BILLETTA_r, 0.5)  Temperatura (degC), Punto: (BILLETTA_r-10*FUNZ_depth_billetta, 0.5)Temperatura (degC), Punto: (BILLETTA_r-5*FUNZ_depth_billetta, 0.5)Temperatura (degC), Punto: (BILLETTA_r-2*FUNZ_depth_billetta, 0.5)Temperatura (degC), Punto: (BILLETTA_r-FUNZ_depth_billetta, 0.5)Temperatura (degC), Punto: (BILLETTA_r-0.01[mm], 0.5)
0                                                 20                                                19.999999999999943                                20.000000081958035                                20.10904115608207                                 21.013279857952284                                21.56317997690212                                 22.035983985764517
3.134501334243946                                 22.16678589466295                                 79.0943022449294                                  1251.4909879302913                                1364.2489256940153                                1390.0079919394939                                1392.2852593267176                                1391.5813010546408
