% Model:              batchmodel_BILLETTA_r_0.0335556_COIL_kr_1.9397_COIL_kw_4.5299_FUNZ_freq_6066_FUNZ_I_eff_162.3068.mph
% Version:            COMSOL 5.6.0.280
% Date:               Jan 27 2022, 18:39
% Table:              Tabella delle sonde 1 - 
% Tempo (s)                                       Temperatura (degC), Punto: (0, 0.5)               Temperatura (degC), Punto: (0.5*BILLETTA_r, 0.5)  Temperatura (degC), Punto: (BILLETTA_r-10*FUNZ_depth_billetta, 0.5)Temperatura (degC), Punto: (BILLETTA_r-5*FUNZ_depth_billetta, 0.5)Temperatura (degC), Punto: (BILLETTA_r-2*FUNZ_depth_billetta, 0.5)Temperatura (degC), Punto: (BILLETTA_r-FUNZ_depth_billetta, 0.5)Temperatura (degC), Punto: (BILLETTA_r-0.01[mm], 0.5)
0                                                 20                                                20                                                20.00000002504754                                 20.06734769792206                                 20.76332250446734                                 21.20561940520264                                 21.597037806117896
5                                                 36.335481472687434                                155.9226404472023                                 1278.2657104544196                                1357.1901413001488                                1374.7874648075426                                1375.894620323059                                 1374.7050112306456
6.069213539218529                                 52.93423016514595                                 207.69648923146934                                1325.5311363225678                                1382.3913421348725                                1393.9835473647886                                1394.2245327170967                                1392.7045204149658
