% Model:              batchmodel_BILLETTA_r_0.0257427_COIL_kr_1.4848_COIL_kw_4.5299_FUNZ_freq_6066_FUNZ_I_eff_85.0125.mph
% Version:            COMSOL 5.6.0.280
% Date:               Jan 27 2022, 12:04
% Table:              Tabella delle sonde 1 - 
% Tempo (s)                                       Temperatura (degC), Punto: (0, 0.5)               Temperatura (degC), Punto: (0.5*BILLETTA_r, 0.5)  Temperatura (degC), Punto: (BILLETTA_r-10*FUNZ_depth_billetta, 0.5)Temperatura (degC), Punto: (BILLETTA_r-5*FUNZ_depth_billetta, 0.5)Temperatura (degC), Punto: (BILLETTA_r-2*FUNZ_depth_billetta, 0.5)Temperatura (degC), Punto: (BILLETTA_r-FUNZ_depth_billetta, 0.5)Temperatura (degC), Punto: (BILLETTA_r-0.01[mm], 0.5)
0                                                 20                                                19.999999999999943                                20.000000000171326                                20.00099830803555                                 20.260464677932305                                20.516437568729316                                20.76119704376373
5                                                 61.94099057715414                                 164.24820400740617                                634.5972274189492                                 766.7704795378385                                 839.4868453454013                                 853.3579446844402                                 858.0860112637821
10                                                234.95388859575365                                398.0439066989371                                 1026.1836334459967                                1113.1307007764053                                1134.2637121941293                                1136.3258001752893                                1135.9938968215788
15                                                410.7380429886896                                 574.6311994369373                                 1109.331041158097                                 1143.5911433852393                                1150.4923765110734                                1150.539547086527                                 1149.5116780167018
20                                                546.4637300047759                                 695.974928592584                                  1141.998944281559                                 1160.1794926883022                                1162.8215902254701                                1162.2552485549477                                1160.9994793465407
25                                                648.2742854569539                                 793.5736838982983                                 1166.6476046268167                                1177.3625127586151                                1177.9484022723273                                1177.0650953035456                                1175.6711039455054
30                                                718.045442708605                                  892.3523611807567                                 1189.904787124471                                 1197.0858831114688                                1196.6440271338647                                1195.57904928704                                  1194.0822695647917
35                                                771.7974324199882                                 983.4615903061816                                 1216.1406072904538                                1221.4379541681706                                1220.3776760643168                                1219.179539333682                                 1217.5868042359994
40                                                855.7400546146954                                 1062.1007017399888                                1247.7731260963283                                1251.9218871436865                                1250.400118350722                                 1249.0789116776991                                1247.381460213997
45                                                970.4147784246717                                 1131.0071048267837                                1285.4721019833937                                1288.651033202214                                 1286.6549509672386                                1285.1920571591631                                1283.366433695859
50                                                1075.32601222706                                  1194.703439118885                                 1327.0400005026481                                1329.0877446076365                                1326.5249961734135                                1324.8949895640708                                1322.9204249290246
54.0270045654075                                  1144.7039486744302                                1243.5823041126687                                1360.493944637462                                 1361.4606203598792                                1358.3967570670288                                1356.6246723547147                                1354.5253057485547
