% Model:              batchmodel_BILLETTA_r_0.0257427_COIL_kr_1.9397_COIL_kw_4.5299_FUNZ_freq_6066_FUNZ_I_eff_162.3068.mph
% Version:            COMSOL 5.6.0.280
% Date:               Jan 27 2022, 13:53
% Table:              Tabella delle sonde 1 - 
% Tempo (s)                                       Temperatura (degC), Punto: (0, 0.5)               Temperatura (degC), Punto: (0.5*BILLETTA_r, 0.5)  Temperatura (degC), Punto: (BILLETTA_r-10*FUNZ_depth_billetta, 0.5)Temperatura (degC), Punto: (BILLETTA_r-5*FUNZ_depth_billetta, 0.5)Temperatura (degC), Punto: (BILLETTA_r-2*FUNZ_depth_billetta, 0.5)Temperatura (degC), Punto: (BILLETTA_r-FUNZ_depth_billetta, 0.5)Temperatura (degC), Punto: (BILLETTA_r-0.01[mm], 0.5)
0                                                 20                                                19.999999999999943                                20.0000000275424                                  20.068544791861314                                20.763255491279608                                21.201962127645288                                21.58927898936372
5                                                 108.72440437092632                                298.88578921780027                                1289.3220862621697                                1358.8169911191412                                1373.7711979828728                                1374.4976493442555                                1373.1833051652943
6.072078215890453                                 160.09636417283508                                375.83924990719856                                1333.978292953982                                 1382.9731060314202                                1392.433698281668                                 1392.372069032498                                 1390.7551866427702
