% Model:              batchmodel_BILLETTA_r_0.0257427_COIL_kr_1.6756_COIL_kw_5.3284_FUNZ_freq_8940.8_FUNZ_I_eff_127.5152.mph
% Version:            COMSOL 5.6.0.280
% Date:               Jan 27 2022, 13:15
% Table:              Tabella delle sonde 1 - 
% Tempo (s)                                       Temperatura (degC), Punto: (0, 0.5)               Temperatura (degC), Punto: (0.5*BILLETTA_r, 0.5)  Temperatura (degC), Punto: (BILLETTA_r-10*FUNZ_depth_billetta, 0.5)Temperatura (degC), Punto: (BILLETTA_r-5*FUNZ_depth_billetta, 0.5)Temperatura (degC), Punto: (BILLETTA_r-2*FUNZ_depth_billetta, 0.5)Temperatura (degC), Punto: (BILLETTA_r-FUNZ_depth_billetta, 0.5)Temperatura (degC), Punto: (BILLETTA_r-0.01[mm], 0.5)
0                                                 20                                                20                                                20.000000012957116                                20.033861619617653                                20.774933970809172                                21.303203829876168                                21.745506456875887
5                                                 99.39357835142931                                 265.86556632019517                                1192.9189020636863                                1260.4130373490111                                1276.0080762377497                                1277.2369090062075                                1276.5668680214899
10                                                326.3316789231992                                 538.1778757423757                                 1293.1407325714954                                1315.6745611577708                                1319.625473976093                                 1319.1869024386428                                1317.8920758351187
14.899167604047534                                512.9542478253991                                 729.1703765120917                                 1368.7788883597268                                1383.7184942113813                                1385.5177108924336                                1384.6812072350544                                1383.127084893888
