% Model:              batchmodel_BILLETTA_r_0.0257427_COIL_kr_1.4848_COIL_kw_5.8583_FUNZ_freq_2540.9_FUNZ_I_eff_127.5152.mph
% Version:            COMSOL 5.6.0.280
% Date:               Jan 27 2022, 12:21
% Table:              Tabella delle sonde 1 - 
% Tempo (s)                                       Temperatura (degC), Punto: (0, 0.5)               Temperatura (degC), Punto: (0.5*BILLETTA_r, 0.5)  Temperatura (degC), Punto: (BILLETTA_r-10*FUNZ_depth_billetta, 0.5)Temperatura (degC), Punto: (BILLETTA_r-5*FUNZ_depth_billetta, 0.5)Temperatura (degC), Punto: (BILLETTA_r-2*FUNZ_depth_billetta, 0.5)Temperatura (degC), Punto: (BILLETTA_r-FUNZ_depth_billetta, 0.5)Temperatura (degC), Punto: (BILLETTA_r-0.01[mm], 0.5)
0                                                 20                                                20                                                20.000000000585942                                20.006866757094485                                20.213058935639367                                20.360728971571064                                20.5111862195198
5                                                 69.65711087958869                                 182.60003787037942                                593.2676124221557                                 773.1663410798645                                 870.2856581123825                                 888.1030465000039                                 893.8265323605534
10                                                257.699831547297                                  436.43135142966025                                1041.7178899549572                                1173.877938699533                                 1203.8550824112813                                1206.332616842807                                 1205.2877134570963
15                                                440.29937158856194                                632.5288508458783                                 1184.9073917040987                                1234.1205880098228                                1242.2322564749688                                1241.6100680678455                                1239.4316904801744
20                                                589.1804119363538                                 795.8256778746035                                 1235.5508820241494                                1257.4556989651492                                1258.6440748641444                                1257.0401538867873                                1254.4892243104423
25                                                699.8238447169541                                 976.7558532845402                                 1261.5895460189167                                1273.0344538747431                                1271.6610340633742                                1269.683861435246                                 1266.9685808747613
30                                                782.6906025866571                                 1113.8631907267713                                1288.7511380480432                                1296.1547938294912                                1293.7259468652378                                1291.5472465197672                                1288.6890054667524
35                                                972.1806480889867                                 1202.5194898275045                                1329.1266544193704                                1335.0201031103206                                1331.9525954249157                                1329.5658002121868                                1326.4980318196053
40                                                1149.1356017140888                                1280.5259865559583                                1381.5577246490693                                1384.8702834931973                                1380.8472942627286                                1378.1830580484411                                1374.8375098000215
41.337358636830814                                1180.9512700980085                                1300.5076662670276                                1392.5327030499516                                1394.9126321522863                                1390.65746809964                                  1387.9393082639995                                1384.5387441145954
