% Model:              batchmodel_BILLETTA_r_0.0257427_COIL_kr_1.6756_COIL_kw_5.3284_FUNZ_freq_7167.5_FUNZ_I_eff_127.5152.mph
% Version:            COMSOL 5.6.0.280
% Date:               Jan 27 2022, 13:12
% Table:              Tabella delle sonde 1 - 
% Tempo (s)                                       Temperatura (degC), Punto: (0, 0.5)               Temperatura (degC), Punto: (0.5*BILLETTA_r, 0.5)  Temperatura (degC), Punto: (BILLETTA_r-10*FUNZ_depth_billetta, 0.5)Temperatura (degC), Punto: (BILLETTA_r-5*FUNZ_depth_billetta, 0.5)Temperatura (degC), Punto: (BILLETTA_r-2*FUNZ_depth_billetta, 0.5)Temperatura (degC), Punto: (BILLETTA_r-FUNZ_depth_billetta, 0.5)Temperatura (degC), Punto: (BILLETTA_r-0.01[mm], 0.5)
0                                                 19.999999999999943                                20                                                20.000000005100844                                20.025121318232152                                20.615740260677285                                21.038513653522273                                21.40782209782111
5                                                 93.76722096158699                                 254.69159305587345                                1142.0381971395632                                1233.652601837769                                 1255.2174155220355                                1257.1843358838714                                1256.6610914589496
10                                                316.7116813059821                                 524.1715347399459                                 1263.7744630555321                                1291.7219831876278                                1296.729166772895                                 1296.3447184873417                                1294.9692828160228
15                                                506.13681248280227                                718.6208210238213                                 1327.5437369344736                                1343.6640047775713                                1345.5462139975184                                1344.6512481274517                                1343.0047982053925
17.722968687844666                                589.6586305248676                                 820.7796695698145                                 1365.3487411888627                                1379.0137222393882                                1380.1185743219125                                1379.0557721213418                                1377.2773461734037
