% Model:              batchmodel_BILLETTA_r_0.0257427_COIL_kr_2.4069_COIL_kw_4.5299_FUNZ_freq_8940.8_FUNZ_I_eff_85.0125.mph
% Version:            COMSOL 5.6.0.280
% Date:               Jan 27 2022, 14:50
% Table:              Tabella delle sonde 1 - 
% Tempo (s)                                       Temperatura (degC), Punto: (0, 0.5)               Temperatura (degC), Punto: (0.5*BILLETTA_r, 0.5)  Temperatura (degC), Punto: (BILLETTA_r-10*FUNZ_depth_billetta, 0.5)Temperatura (degC), Punto: (BILLETTA_r-5*FUNZ_depth_billetta, 0.5)Temperatura (degC), Punto: (BILLETTA_r-2*FUNZ_depth_billetta, 0.5)Temperatura (degC), Punto: (BILLETTA_r-FUNZ_depth_billetta, 0.5)Temperatura (degC), Punto: (BILLETTA_r-0.01[mm], 0.5)
0                                                 20                                                20                                                20.000000000662965                                20.00242705592194                                 20.3896447460599                                  20.765170496156657                                21.098938638644427
5                                                 65.51878600652202                                 185.2653020163604                                 831.4991682591614                                 1006.1106986679357                                1072.8265610523226                                1082.6378507611325                                1085.2707153948531
10                                                256.7819411397662                                 432.24244622786637                                1094.9385407189288                                1137.6372220393037                                1147.7505350294955                                1148.4331985943177                                1147.8145272465608
15                                                435.40080723280425                                602.1171840710699                                 1143.505181707772                                 1164.0732686360425                                1167.85396531365                                  1167.6136960200752                                1166.6569882163653
20                                                569.3307184082404                                 720.2937720449413                                 1174.9379984346451                                1186.7607991902487                                1188.1231863506132                                1187.5110000580612                                1186.3943727660599
25                                                666.31374616001                                   820.5487842288788                                 1204.800349089674                                 1213.1593868496984                                1213.503896055306                                 1212.7085117218053                                1211.4857684892763
30                                                730.1599631840959                                 924.31370379322                                   1239.9273899222867                                1246.5837650745357                                1246.3466659838664                                1245.4180690433632                                1244.0943316988114
35                                                785.8367614716302                                 1019.2605265282542                                1283.1685405210824                                1288.7932799443101                                1288.0913844431607                                1287.0272862724137                                1285.5827139114144
40                                                890.680458864468                                  1105.237599784673                                 1333.6100208120297                                1338.2346929305754                                1337.003597082969                                 1335.7764657023754                                1334.1838245903782
43.70323948434793                                 988.6141537305249                                 1165.4832377089701                                1370.5674429741007                                1374.024123934656                                 1372.2878928644163                                1370.924753105579                                 1369.2162644681384
