% Model:              batchmodel_BILLETTA_r_0.0257427_COIL_kr_2.7711_COIL_kw_5.3284_FUNZ_freq_6066_FUNZ_I_eff_127.5152.mph
% Version:            COMSOL 5.6.0.280
% Date:               Jan 27 2022, 15:50
% Table:              Tabella delle sonde 1 - 
% Tempo (s)                                       Temperatura (degC), Punto: (0, 0.5)               Temperatura (degC), Punto: (0.5*BILLETTA_r, 0.5)  Temperatura (degC), Punto: (BILLETTA_r-10*FUNZ_depth_billetta, 0.5)Temperatura (degC), Punto: (BILLETTA_r-5*FUNZ_depth_billetta, 0.5)Temperatura (degC), Punto: (BILLETTA_r-2*FUNZ_depth_billetta, 0.5)Temperatura (degC), Punto: (BILLETTA_r-FUNZ_depth_billetta, 0.5)Temperatura (degC), Punto: (BILLETTA_r-0.01[mm], 0.5)
0                                                 19.999999999999943                                19.999999999999943                                20.000000003454147                                20.021048920845658                                20.521911079784218                                20.883187737541732                                21.208876989025043
5                                                 86.80765342350782                                 247.51529695148724                                1107.2389297507284                                1220.2622976715156                                1246.8464537756386                                1249.4095874239938                                1248.9892851938102
10                                                313.80649473943674                                527.2646107983077                                 1254.5438948714586                                1285.1468620260612                                1290.4729520272317                                1290.035999533845                                 1288.539871641011
15                                                508.2074247368216                                 721.7534493628585                                 1307.6265544506064                                1324.0496386896798                                1325.740310261404                                 1324.7463477486713                                1322.9881225935574
20                                                651.7750598523195                                 917.6478402865547                                 1367.1749061128507                                1379.1935883633114                                1379.5633517081174                                1378.28526749085                                  1376.304000602419
21.038349184459992                                675.6078158573531                                 961.1384474417729                                 1379.4290459369909                                1390.4353607430385                                1390.491982458832                                 1389.151755800728                                 1387.1233851068428
