% Model:              batchmodel_BILLETTA_r_0.0257427_COIL_kr_2.7711_COIL_kw_4.5299_FUNZ_freq_7167.5_FUNZ_I_eff_162.3068.mph
% Version:            COMSOL 5.6.0.280
% Date:               Jan 27 2022, 15:42
% Table:              Tabella delle sonde 1 - 
% Tempo (s)                                       Temperatura (degC), Punto: (0, 0.5)               Temperatura (degC), Punto: (0.5*BILLETTA_r, 0.5)  Temperatura (degC), Punto: (BILLETTA_r-10*FUNZ_depth_billetta, 0.5)Temperatura (degC), Punto: (BILLETTA_r-5*FUNZ_depth_billetta, 0.5)Temperatura (degC), Punto: (BILLETTA_r-2*FUNZ_depth_billetta, 0.5)Temperatura (degC), Punto: (BILLETTA_r-FUNZ_depth_billetta, 0.5)Temperatura (degC), Punto: (BILLETTA_r-0.01[mm], 0.5)
0                                                 20                                                20                                                20.000000042782005                                20.08181458691314                                 20.903873670299276                                21.421158688807395                                21.864137705852215
5                                                 103.08843878014119                                306.06131548194924                                1332.7888194834486                                1386.3145534199293                                1397.348053677973                                 1397.6206602442812                                1396.238923678667
5.152214327341521                                 110.50155443649174                                317.60903406986245                                1339.2188588409676                                1389.2701138915577                                1399.4389092314036                                1399.589413231868                                 1398.162667211623
