% Model:              batchmodel_BILLETTA_r_0.0257427_COIL_kr_2.4069_COIL_kw_5.3284_FUNZ_freq_4639.7_FUNZ_I_eff_127.5152.mph
% Version:            COMSOL 5.6.0.280
% Date:               Jan 27 2022, 14:54
% Table:              Tabella delle sonde 1 - 
% Tempo (s)                                       Temperatura (degC), Punto: (0, 0.5)               Temperatura (degC), Punto: (0.5*BILLETTA_r, 0.5)  Temperatura (degC), Punto: (BILLETTA_r-10*FUNZ_depth_billetta, 0.5)Temperatura (degC), Punto: (BILLETTA_r-5*FUNZ_depth_billetta, 0.5)Temperatura (degC), Punto: (BILLETTA_r-2*FUNZ_depth_billetta, 0.5)Temperatura (degC), Punto: (BILLETTA_r-FUNZ_depth_billetta, 0.5)Temperatura (degC), Punto: (BILLETTA_r-0.01[mm], 0.5)
0                                                 20                                                20                                                20.000000001989235                                20.015470343694858                                20.39770829222107                                 20.6742255946657                                  20.93518387790084
5                                                 84.36120005930405                                 229.03814666366435                                964.5995326723286                                 1147.4217097373494                                1193.3613762302757                                1198.5604796270432                                1198.9387500506346
10                                                297.0808644570976                                 497.1397525226099                                 1210.614692135648                                 1259.1276717051487                                1268.5704968061164                                1268.5593089093409                                1267.0499563854182
15                                                480.4859393543603                                 685.5546464645373                                 1263.0880005185986                                1284.8564660219831                                1287.4710336713802                                1286.4925387971984                                1284.6212445640426
20                                                625.6366502748776                                 863.4464119856192                                 1307.3898989493678                                1320.4948824820385                                1320.823333267107                                 1319.46403086058                                  1317.3806712079527
25                                                728.0035695414517                                 1048.5580915958103                                1361.0739209740414                                1371.3695398251994                                1370.7649644578883                                1369.1653000571437                                1366.8645493587287
26.885544968808215                                757.0193276371718                                 1104.732353213773                                 1381.1029546796144                                1389.8547572832222                                1388.780943811836                                 1387.08181427312                                  1384.6979720224385
