% Model:              batchmodel_BILLETTA_r_0.0257427_COIL_kr_1.9397_COIL_kw_5.3284_FUNZ_freq_7167.5_FUNZ_I_eff_85.0125.mph
% Version:            COMSOL 5.6.0.280
% Date:               Jan 27 2022, 14:04
% Table:              Tabella delle sonde 1 - 
% Tempo (s)                                       Temperatura (degC), Punto: (0, 0.5)               Temperatura (degC), Punto: (0.5*BILLETTA_r, 0.5)  Temperatura (degC), Punto: (BILLETTA_r-10*FUNZ_depth_billetta, 0.5)Temperatura (degC), Punto: (BILLETTA_r-5*FUNZ_depth_billetta, 0.5)Temperatura (degC), Punto: (BILLETTA_r-2*FUNZ_depth_billetta, 0.5)Temperatura (degC), Punto: (BILLETTA_r-FUNZ_depth_billetta, 0.5)Temperatura (degC), Punto: (BILLETTA_r-0.01[mm], 0.5)
0                                                 20                                                20                                                20.000000000271314                                20.001433974330155                                20.309218777580384                                20.61055306159068                                 20.8897641188384
5                                                 62.68913650452254                                 166.75745488078974                                695.5982951503692                                 848.6915404687196                                 925.8736251339448                                 939.7770955811158                                 944.3238331681456
10                                                241.02024952508827                                406.2037661613077                                 1056.0455414036055                                1124.239502292639                                 1140.3476718164898                                1141.769943328738                                 1141.3019505040038
15                                                416.40365911656943                                581.376996517406                                  1123.1061389830356                                1151.2313491445248                                1156.7582753793445                                1156.6833072153345                                1155.6922030570177
20                                                552.0865854006711                                 701.8322776932722                                 1154.2118652066115                                1169.43089125829                                  1171.4819531075286                                1170.8968174999504                                1169.7083538252323
25                                                652.6170785670787                                 799.3894366680926                                 1179.838280278308                                 1189.4813930114192                                1189.969492105848                                 1189.131634589674                                 1187.8213120348546
30                                                720.875444836812                                  900.1947342673208                                 1206.7810308203993                                1213.6905607405579                                1213.344850664017                                 1212.3475009113936                                1210.9366294020774
35                                                772.2651235218428                                 992.719430590479                                  1238.7432715497748                                1244.1760017749825                                1243.3038698444957                                1242.1801874117873                                1240.6696333756813
40                                                860.1666572739222                                 1073.6097903076634                                1277.4348052174023                                1281.9129024354397                                1280.5928295986369                                1279.3363655095081                                1277.705995964007
45                                                981.5827434803751                                 1147.4336989561193                                1321.7749515736568                                1325.2165825625243                                1323.3655260151027                                1321.9488066156086                                1320.1738814021278
50                                                1082.121024822989                                 1212.1357516316416                                1360.8872735522013                                1362.9456480471958                                1360.5062715439535                                1358.9308841354787                                1357.0200643724793
55                                                1165.9785586010566                                1270.8790335586991                                1391.803387415432                                 1392.3296960582793                                1389.3327934770596                                1387.6217897192023                                1385.6001424239153
55.24020395905268                                 1170.007140923034                                 1273.701107336024                                 1393.2886220051264                                1393.7413289913302                                1390.7176424158702                                1389.000123541206                                 1386.973152003513
