% Model:              batchmodel_BILLETTA_r_0.0257427_COIL_kr_1.9397_COIL_kw_3.7744_FUNZ_freq_7167.5_FUNZ_I_eff_85.0125.mph
% Version:            COMSOL 5.6.0.280
% Date:               Jan 27 2022, 13:44
% Table:              Tabella delle sonde 1 - 
% Tempo (s)                                       Temperatura (degC), Punto: (0, 0.5)               Temperatura (degC), Punto: (0.5*BILLETTA_r, 0.5)  Temperatura (degC), Punto: (BILLETTA_r-10*FUNZ_depth_billetta, 0.5)Temperatura (degC), Punto: (BILLETTA_r-5*FUNZ_depth_billetta, 0.5)Temperatura (degC), Punto: (BILLETTA_r-2*FUNZ_depth_billetta, 0.5)Temperatura (degC), Punto: (BILLETTA_r-FUNZ_depth_billetta, 0.5)Temperatura (degC), Punto: (BILLETTA_r-0.01[mm], 0.5)
0                                                 19.999999999999943                                20                                                20.00000000027137                                 20.0014339740747                                  20.309218764456546                                20.610553041617834                                20.88976409387442
5                                                 63.19448003448082                                 167.20250708259368                                694.1151145721454                                 846.183575300725                                  922.878977607735                                  936.7555745767387                                 941.304800565648
10                                                241.2333977459706                                 406.2525306940082                                 1055.9837544140464                                1124.2122123127078                                1140.3372942920587                                1141.7630425392613                                1141.2962884106219
15                                                416.4518421231728                                 581.3897819748347                                 1123.1385297029174                                1151.2581264211203                                1156.78338776286                                  1156.7081323205553                                1155.7168808158972
20                                                552.0972328452491                                 701.84817441736                                   1154.2114417973457                                1169.4269329011804                                1171.47710711713                                  1170.891861942006                                 1169.7033733319863
25                                                652.6222658640946                                 799.4083122780734                                 1179.8404512143684                                1189.4824522445142                                1189.970259838266                                 1189.1323611889538                                1187.8220237255377
30                                                720.88060112509                                   900.2121596029064                                 1206.7858604859507                                1213.6950411963016                                1213.3492210780319                                1212.3518484795304                                1210.9409610980006
35                                                772.2739203930231                                 992.7337877084077                                 1238.7495641220971                                1244.1821113687042                                1243.3099016935007                                1242.1861973950968                                1240.6756241285889
40                                                860.1836479840905                                 1073.6222390322469                                1277.4421146909367                                1281.9200557935624                                1280.5999018273528                                1279.34341265472                                  1277.7130200795705
45                                                981.6013784695698                                 1147.445116666569                                 1321.7827781358696                                1325.224223440221                                 1323.373070546083                                 1321.9563221165467                                1320.1813707740375
50                                                1082.1374423358416                                1212.1464283774949                                1360.8941146984807                                1362.9523248536625                                1360.5128755368878                                1358.9374675208182                                1357.0266236588695
55                                                1165.9908294988222                                1270.8872937662536                                1391.8064878531472                                1392.3327273065015                                1389.3358286481466                                1387.6248299210033                                1385.6031697944045
55.24055558609152                                 1170.025109637772                                 1273.7133824264765                                1393.2937166614875                                1393.746251292831                                 1390.72253312386                                  1389.0050109761228                                1386.9780193552256
