% Model:              batchmodel_BILLETTA_r_0.0257427_COIL_kr_1.9397_COIL_kw_3.2356_FUNZ_freq_7167.5_FUNZ_I_eff_127.5152.mph
% Version:            COMSOL 5.6.0.280
% Date:               Jan 27 2022, 13:34
% Table:              Tabella delle sonde 1 - 
% Tempo (s)                                       Temperatura (degC), Punto: (0, 0.5)               Temperatura (degC), Punto: (0.5*BILLETTA_r, 0.5)  Temperatura (degC), Punto: (BILLETTA_r-10*FUNZ_depth_billetta, 0.5)Temperatura (degC), Punto: (BILLETTA_r-5*FUNZ_depth_billetta, 0.5)Temperatura (degC), Punto: (BILLETTA_r-2*FUNZ_depth_billetta, 0.5)Temperatura (degC), Punto: (BILLETTA_r-FUNZ_depth_billetta, 0.5)Temperatura (degC), Punto: (BILLETTA_r-0.01[mm], 0.5)
0                                                 19.999999999999943                                20                                                20.00000000535715                                 20.025657522553445                                20.618361718075164                                21.04435498469951                                 21.416686430238656
5                                                 94.42291796761094                                 257.17574903923787                                1149.0272543309547                                1237.22918725102                                  1257.8922841425415                                1259.7337087372166                                1259.1650173573107
10                                                317.1248730590037                                 524.8314406972172                                 1270.2223476058866                                1298.6561406643386                                1303.725492654959                                 1303.3337928715996                                1301.9407067391367
15                                                499.4655161707892                                 712.6481222501916                                 1326.2617572429585                                1343.1945752542165                                1345.2965671437682                                1344.4322986939242                                1342.7963112261955
17.15514096108601                                 565.0882437008754                                 789.34831325742                                   1355.28922014012                                  1370.135373126207                                 1371.5945487297395                                1370.5945363935707                                1368.855574356895
