% Model:              batchmodel_BILLETTA_r_0.0257427_COIL_kr_2.4069_COIL_kw_5.8583_FUNZ_freq_2540.9_FUNZ_I_eff_85.0125.mph
% Version:            COMSOL 5.6.0.280
% Date:               Jan 27 2022, 15:03
% Table:              Tabella delle sonde 1 - 
% Tempo (s)                                       Temperatura (degC), Punto: (0, 0.5)               Temperatura (degC), Punto: (0.5*BILLETTA_r, 0.5)  Temperatura (degC), Punto: (BILLETTA_r-10*FUNZ_depth_billetta, 0.5)Temperatura (degC), Punto: (BILLETTA_r-5*FUNZ_depth_billetta, 0.5)Temperatura (degC), Punto: (BILLETTA_r-2*FUNZ_depth_billetta, 0.5)Temperatura (degC), Punto: (BILLETTA_r-FUNZ_depth_billetta, 0.5)Temperatura (degC), Punto: (BILLETTA_r-0.01[mm], 0.5)
0                                                 20                                                19.999999999999886                                20.00000000003797                                 20.000168840937476                                20.10704381803646                                 20.214818382206943                                20.3321492536557
5                                                 48.20490422392089                                 110.50108957096518                                315.61139944746185                                400.4113160129581                                 450.80160531863396                                461.15080794649214                                465.023715515262
10                                                169.92455744969112                                284.78861324533773                                596.0332368149063                                 717.7596743854374                                 782.9193792119582                                 794.8990382811693                                 798.7956755925208
15                                                316.9903788195977                                 451.71015620607193                                837.867003574327                                  1001.921961354593                                 1062.9256830109352                                1071.4836931777031                                1073.0817215125185
20                                                447.67981834891657                                587.0120241970665                                 1002.1548859400624                                1096.5210947445494                                1118.8896537747455                                1120.6460803664963                                1119.6753138766599
25                                                557.1425569928505                                 691.3973674111589                                 1075.2167656536167                                1123.1002620335048                                1132.0765618001656                                1131.9294470012546                                1130.2935622388363
30                                                646.8446569197821                                 779.3495718374005                                 1110.730011348584                                 1136.3822693860084                                1139.4733715574025                                1138.4950045513601                                1136.5643030806991
35                                                711.8201621201551                                 867.8631713401932                                 1130.1354757208874                                1144.9293592897889                                1145.2382806890573                                1143.8646853941236                                1141.7863699127229
40                                                757.4805932174205                                 950.5839432262861                                 1144.638891579019                                 1153.2114515032408                                1151.8766686786912                                1150.2579579285812                                1148.0770601544414
45                                                822.8798813688692                                 1020.2286003924072                                1157.8811768276278                                1162.580313316695                                 1160.1732554412283                                1158.3805083100583                                1156.113701501115
50                                                921.9471218954678                                 1077.184238615625                                 1171.899660554374                                 1174.0813069226783                                1170.921986640864                                 1168.990096523543                                 1166.6394074498403
55                                                1020.175441198735                                 1123.1410517754998                                1188.7122570635524                                1189.1228157392684                                1185.3591192505596                                1183.294944927357                                 1180.8483915883312
60                                                1095.2058832786784                                1162.4671800857118                                1210.0488275046955                                1208.9729978871446                                1204.6169518902052                                1202.4043935606487                                1199.8374256246789
65                                                1150.7775901794516                                1198.0262630590455                                1234.047722872188                                 1231.7529970394453                                1226.8588521809493                                1224.5009032214439                                1221.809702969918
70                                                1191.6224112594064                                1230.1620577684398                                1259.5814008199513                                1256.3117949607968                                1250.9346002909192                                1248.4359056398557                                1245.6187083627642
75                                                1225.8545299268667                                1259.8297080936663                                1284.6786353013322                                1280.5554780685015                                1274.7225793334396                                1272.0841593840773                                1269.1376639829678
80                                                1255.70355601149                                  1287.5200749525902                                1309.0554402534653                                1304.1682801963525                                1297.9044314887215                                1295.1296938922364                                1292.0548367956749
85                                                1282.7464899033625                                1313.4799971830466                                1332.3735328100515                                1326.792224724405                                 1320.1205875511919                                1317.2138413611774                                1314.013110484621
90                                                1308.2200959679853                                1337.8006391533677                                1354.0303365398318                                1347.841686475631                                 1340.8043185769939                                1337.7754647424485                                1334.4559818575012
92.44387867519413                                 1319.888662169542                                 1349.0680028555776                                1364.0879524378784                                1357.6336544812852                                1350.43116620597                                  1347.3456558293933                                1343.9701949401892
