% Model:              batchmodel_BILLETTA_r_0.0257427_COIL_kr_1.4848_COIL_kw_3.2356_FUNZ_freq_4639.7_FUNZ_I_eff_174.7421.mph
% Version:            COMSOL 5.6.0.280
% Date:               Jan 27 2022, 11:41
% Table:              Tabella delle sonde 1 - 
% Tempo (s)                                       Temperatura (degC), Punto: (0, 0.5)               Temperatura (degC), Punto: (0.5*BILLETTA_r, 0.5)  Temperatura (degC), Punto: (BILLETTA_r-10*FUNZ_depth_billetta, 0.5)Temperatura (degC), Punto: (BILLETTA_r-5*FUNZ_depth_billetta, 0.5)Temperatura (degC), Punto: (BILLETTA_r-2*FUNZ_depth_billetta, 0.5)Temperatura (degC), Punto: (BILLETTA_r-FUNZ_depth_billetta, 0.5)Temperatura (degC), Punto: (BILLETTA_r-0.01[mm], 0.5)
0                                                 20.000000000000057                                19.999999999999943                                20.000000024407655                                20.06981403805355                                 20.646191905152136                                20.998079299857977                                21.322988328545478
5                                                 102.83595065758476                                299.75415911943344                                1290.0042043849694                                1375.7437717437551                                1393.4671643122579                                1394.3093886090096                                1392.7396936856285
5.327984392520057                                 118.48588218383372                                324.93024401622097                                1307.744162591036                                 1383.5216730415723                                1398.722693857972                                 1399.2197040009119                                1397.5225380942175
