% Model:              batchmodel_BILLETTA_r_0.0257427_COIL_kr_2.7711_COIL_kw_3.2356_FUNZ_freq_6066_FUNZ_I_eff_61.5962.mph
% Version:            COMSOL 5.6.0.280
% Date:               Jan 27 2022, 15:16
% Table:              Tabella delle sonde 1 - 
% Tempo (s)                                       Temperatura (degC), Punto: (0, 0.5)               Temperatura (degC), Punto: (0.5*BILLETTA_r, 0.5)  Temperatura (degC), Punto: (BILLETTA_r-10*FUNZ_depth_billetta, 0.5)Temperatura (degC), Punto: (BILLETTA_r-5*FUNZ_depth_billetta, 0.5)Temperatura (degC), Punto: (BILLETTA_r-2*FUNZ_depth_billetta, 0.5)Temperatura (degC), Punto: (BILLETTA_r-FUNZ_depth_billetta, 0.5)Temperatura (degC), Punto: (BILLETTA_r-0.01[mm], 0.5)
0                                                 19.999999999999943                                19.999999999999943                                20.00000000002342                                 20.000106910989473                                20.14156541012028                                 20.33265613166975                                 20.529959084667553
5                                                 45.522724407291946                                107.79598675646076                                366.1374838635055                                 428.0528674550392                                 464.63149358955934                                472.35049630219237                                475.2852913486437
10                                                164.91682195553904                                280.2869340000367                                 666.9680762595805                                 759.3559608629001                                 810.2550903851251                                 820.2740335938328                                 823.6554957572281
15                                                314.14628266017303                                446.978606766897                                  915.6248959308269                                 1025.3456961910379                                1065.0126110079564                                1070.5546983091617                                1071.6241619699408
20                                                447.22935807987346                                580.3179796515716                                 1026.9336902531854                                1078.749739344652                                 1091.9686420423727                                1093.1099287780576                                1092.582696012259
25                                                555.5776017173733                                 678.3207967007518                                 1066.463431950397                                 1095.5282356285466                                1102.01602626868                                  1102.1611968078078                                1101.2793427616775
30                                                639.9761695331802                                 750.4366582361765                                 1089.320718550704                                 1107.6864916613067                                1111.016123017619                                 1110.6813374833123                                1109.6198000530458
35                                                700.7825669201832                                 813.878921380108                                  1104.73700265767                                  1117.398874488601                                 1119.023590816193                                 1118.4219194246375                                1117.2537746422745
40                                                739.5454806596427                                 877.1480831320354                                 1118.4877585724457                                1126.9924876843684                                1127.33799499848                                  1126.5304014428057                                1125.2751226518908
45                                                773.8209344710791                                 933.8773994161905                                 1131.7823035492793                                1137.3107304369983                                1136.7210134085526                                1135.7557151158612                                1134.4271094398355
50                                                828.5752949207687                                 984.61801961924                                   1144.7156764875758                                1148.199869570176                                 1146.9432382408872                                1145.8580861098126                                1144.4667902116607
55                                                899.0015492758622                                 1030.6471827086816                                1158.3060181876008                                1160.2579807750185                                1158.4777632784553                                1157.2912618832866                                1155.840286850374
60                                                968.698069104416                                  1070.3734583700757                                1173.391490640066                                 1174.2697133468596                                1172.0887827108681                                1170.814636051895                                 1169.3034373783398
65                                                1026.8113014752998                                1106.1777885229385                                1189.67401342611                                  1189.6520592598526                                1187.112636924613                                 1185.7538934094769                                1184.1798773196701
70                                                1072.6727549635239                                1137.546642616769                                 1207.5147343838448                                1206.7589334360864                                1203.9065697684919                                1202.4677590843362                                1200.8293937699336
75                                                1113.4487267099285                                1166.9862598196055                                1225.7773334771196                                1224.3577256683898                                1221.2128891483785                                1219.6968160078627                                1217.9947021921043
80                                                1148.8510665925937                                1194.3395124949911                                1244.3637302976758                                1242.3548661955047                                1238.9400319589045                                1237.350161450002                                 1235.585604589638
85                                                1179.3975833966838                                1219.3050293502229                                1262.751100223467                                 1260.2362126241037                                1256.575495726177                                 1254.914966986416                                 1253.088452856924
90                                                1206.8765481683972                                1242.4569922175615                                1280.4863317309164                                1277.515061964345                                 1273.6247454623385                                1271.8964705803164                                1270.0095156208945
95                                                1230.6446373644103                                1263.3285767080606                                1297.2834645620514                                1293.9150317014428                                1289.8151108070451                                1288.022875891972                                 1286.0776573818075
100                                               1254.4127265604238                                1284.2001611985606                                1314.0805973931865                                1310.315001438541                                 1306.0054761517517                                1304.1492812036286                                1302.145799142721
105                                               1276.3424324243115                                1303.667531511353                                 1329.8597881687424                                1325.7302356909909                                1321.2254080620419                                1319.308725372125                                 1317.2496065623563
110                                               1295.7066424910427                                1321.1752966056579                                1344.218423165914                                 1339.7712545102227                                1335.091083298053                                 1333.1187585089638                                1331.0076686978769
115                                               1315.0708525577734                                1338.6830616999628                                1358.577058163085                                 1353.8122733294545                                1348.9567585340637                                1346.928791645802                                 1344.7657308333974
120                                               1331.6171272248698                                1353.2076508316136                                1370.2245994011141                                1365.2153983184057                                1360.22244501046                                  1358.1498028897627                                1355.9442787413586
125                                               1344.485284224323                                 1363.8384416116955                                1378.3334783066312                                1373.175405376482                                 1368.094489250183                                 1365.991486428998                                 1363.755908850013
130                                               1357.3534412237764                                1374.4692323917775                                1386.4423572121482                                1381.135412434559                                 1375.9665334899064                                1373.833169968233                                 1371.5675389586672
132.74931251901458                                1364.429158250825                                 1380.314705627518                                 1390.9011256701706                                1385.5123218458016                                1380.2950754456074                                1378.1450177131474                                1375.8628614489944
