% Model:              batchmodel_BILLETTA_r_0.0257427_COIL_kr_1.6756_COIL_kw_3.2356_FUNZ_freq_6066_FUNZ_I_eff_61.5962.mph
% Version:            COMSOL 5.6.0.280
% Date:               Jan 27 2022, 12:36
% Table:              Tabella delle sonde 1 - 
% Tempo (s)                                       Temperatura (degC), Punto: (0, 0.5)               Temperatura (degC), Punto: (0.5*BILLETTA_r, 0.5)  Temperatura (degC), Punto: (BILLETTA_r-10*FUNZ_depth_billetta, 0.5)Temperatura (degC), Punto: (BILLETTA_r-5*FUNZ_depth_billetta, 0.5)Temperatura (degC), Punto: (BILLETTA_r-2*FUNZ_depth_billetta, 0.5)Temperatura (degC), Punto: (BILLETTA_r-FUNZ_depth_billetta, 0.5)Temperatura (degC), Punto: (BILLETTA_r-0.01[mm], 0.5)
0                                                 20                                                19.999999999999943                                20.000000000009152                                20.000035391470078                                20.070726724849408                                20.227083838254146                                20.388911423967215
5                                                 41.05338289262096                                 103.31866721652005                                352.74172691484716                                412.0134241720107                                 446.17243729757786                                453.6255460378542                                 456.50210622855263
10                                                156.94081900671148                                269.25259023310593                                636.4356278479146                                 720.9264021737256                                 766.8315790375694                                 775.9948239266581                                 779.1597314955094
15                                                304.08866324949315                                433.93213605687697                                895.7700354929824                                 1024.0136663856315                                1075.0749567822832                                1082.5965379619315                                1084.368146097917
20                                                438.1536685938445                                 570.4328490372935                                 1018.2293721557668                                1073.8150221286855                                1088.4646151099478                                1089.8263525812663                                1089.3839109159076
25                                                547.2601734060919                                 670.0849658986378                                 1061.996213136339                                 1092.9487317295993                                1100.0131423979078                                1100.251087497777                                 1099.4053083640097
30                                                633.1580931441051                                 742.9366260032489                                 1086.5053567758077                                1106.0747653727722                                1109.7701703838393                                1109.4916456703013                                1108.4515941526774
35                                                696.3868087801552                                 806.9227967955866                                 1103.6248252646515                                1116.6405457626547                                1118.3596006465782                                1117.772774449205                                 1116.610936982721
40                                                741.0663012220422                                 873.4498312616778                                 1118.7692378639695                                1127.2137082560102                                1127.5336011409363                                1126.7214895199654                                1125.4642569496236
45                                                785.8230858824926                                 934.8753877131638                                 1132.4166047004728                                1137.8057894234912                                1137.1679707258845                                1136.1944106029773                                1134.8620196887705
50                                                846.2697657224331                                 986.3954228437873                                 1145.2764015134703                                1148.8227919370324                                1147.5783911745148                                1146.4935727064994                                1145.1009100753076
55                                                917.129029477056                                  1032.5562711264506                                1158.681665882379                                 1160.6905811920856                                1158.9237601765817                                1157.7381739678567                                1156.2864695638882
60                                                980.5046001622596                                 1073.0197019167654                                1173.7003829462756                                1174.5566057627734                                1172.3672226353792                                1171.091195006743                                 1169.5788052537955
65                                                1033.0368021636968                                1108.3179582435419                                1190.592563694432                                 1190.5434943722503                                1187.9912828953884                                1186.628772124926                                 1185.051363149475
70                                                1080.8239920059673                                1141.440840805678                                 1208.1871642919418                                1207.3271827541712                                1204.4380459179047                                1202.9918936603062                                1201.3491298856047
75                                                1121.9781706819294                                1171.608392173378                                 1226.645275540544                                 1225.0923154663205                                1221.9022245793808                                1220.3775221012284                                1218.6705085781637
80                                                1157.5819906295224                                1199.3029870091227                                1245.8259536232968                                1243.6786993369733                                1240.2177544040746                                1238.6187619659368                                1236.8484233769314
85                                                1189.6110375238359                                1225.1659042616798                                1264.5443335552104                                1261.8639442690824                                1258.1473921331572                                1256.475590969561                                 1254.6417250094341
90                                                1217.4120057113537                                1248.985079646522                                 1283.1922378743348                                1280.0522819653133                                1276.1002812555498                                1274.3580715960543                                1272.4608486427169
95                                                1241.7943733726624                                1271.03947257561                                  1301.5908953187673                                1298.048655370862                                 1293.8777145900676                                1292.0673533509548                                1290.1073207006193
100                                               1265.2069368343236                                1292.1668817126247                                1319.0840768275502                                1315.1479109091533                                1310.762579757055                                 1308.8855157496796                                1306.8640453321482
105                                               1286.305333258043                                 1311.9073646045304                                1336.032045095214                                 1331.737170307444                                 1327.1485637380028                                1325.2066894146296                                1323.1247004447364
110                                               1305.995382406339                                 1330.1796318179981                                1351.5326545768094                                1346.9192748706441                                1342.1478664394049                                1340.1467562315333                                1338.0088458571568
115                                               1324.4281697473161                                1346.9701247483322                                1365.4354326423536                                1360.5445837463226                                1355.6124079691454                                1353.5582504409945                                1351.3696292678555
119.5760583166078                                 1339.956632856437                                 1361.059833286583                                 1376.9976463875614                                1371.8874998012366                                1366.82502414686                                  1364.7267670623833                                1362.4953287201542
